/*--------------------------------*- C++ -*----------------------------------*\
  =========                 |
  \\      /  F ield         | OpenFOAM: The Open Source CFD Toolbox
   \\    /   O peration     | Website:  https://openfoam.org
    \\  /    A nd           | Version:  6
     \\/     M anipulation  |
\*---------------------------------------------------------------------------*/
FoamFile
{
    version     2.0;
    format      ascii;
    class       volScalarField;
    location    "1300";
    object      nuTilda;
}
// * * * * * * * * * * * * * * * * * * * * * * * * * * * * * * * * * * * * * //

dimensions      [0 2 -1 0 0 0 0];

internalField   nonuniform List<scalar> 
29874
(
0.251664
0.207307
0.121571
0.155393
0.179005
0.241566
0.217064
0.141058
0.152903
0.141856
0.268077
0.258063
0.18208
0.262975
0.265999
0.283127
0.175309
0.276901
0.118827
0.141927
0.14066
0.143784
0.140531
0.1534
0.144485
0.177046
0.219622
0.143851
0.233477
0.233614
0.229476
0.195378
0.194713
0.22068
0.15147
0.158012
0.142243
0.162897
0.164078
0.200378
0.139903
0.139655
0.145184
0.13309
0.191301
0.160701
0.178048
0.245027
0.239057
0.239861
0.193762
0.291052
0.267433
0.278891
0.199394
0.192783
0.134861
0.169839
0.166087
0.172031
0.163766
0.149104
0.147477
0.167411
0.123467
0.189825
0.23845
0.176406
0.2622
0.283428
0.154935
0.148351
0.144379
0.109379
0.284804
0.230174
0.231725
0.226087
0.182962
0.164754
0.192331
0.110578
0.138311
0.146668
0.0954019
0.10934
0.148787
0.140873
0.188029
0.163199
0.0702119
0.139491
0.138601
0.145259
0.134587
0.138233
0.135907
0.0982426
0.0612613
0.102359
0.15088
0.138564
0.138787
0.167685
0.21167
0.063325
0.0755847
0.154616
0.158884
0.144406
0.0748076
0.195805
0.205186
0.13851
0.138512
0.138778
0.134781
0.150725
0.000251557
0.142238
0.139775
0.178417
0.13007
0.115033
0.1367
0.138604
0.15311
0.146941
0.142068
0.135008
0.140009
0.137066
0.150478
0.14321
0.143568
0.143276
0.146252
0.13442
0.143826
0.233571
0.20028
0.171795
0.278178
0.16954
0.149492
0.152049
0.170744
0.182879
0.139763
0.276415
0.246692
0.240735
0.294342
0.120209
0.135577
0.140101
0.150216
0.162007
0.183679
0.185209
0.166967
0.18112
0.222271
0.163068
0.216012
0.190132
0.171889
0.150207
0.149333
0.154349
0.19404
0.173016
0.164446
0.0923132
0.0808326
0.154996
0.148068
0.000340335
0.147797
0.14501
0.000279546
0.00025854
0.160464
0.143072
0.140957
0.158907
0.138308
0.138648
0.1407
0.1386
0.138478
0.190426
0.144897
0.139425
0.170673
0.143267
0.141858
0.154951
0.000516722
0.000513678
0.152235
0.150809
0.176748
0.163709
0.141023
0.138935
0.140607
0.216571
0.146709
0.140006
0.142436
0.145683
0.133799
0.141664
0.143006
0.146145
0.14562
0.142525
0.146281
0.152949
0.235801
0.197391
0.197863
0.162325
0.139683
0.146001
0.151421
0.149339
0.161403
0.139068
0.139974
0.140011
0.137861
0.129873
0.144489
0.146533
0.135261
0.170914
0.159444
0.195999
0.198672
0.0067001
0.0421169
0.102014
0.107613
0.0379441
0.0358345
0.0591837
0.131699
0.0454539
0.0824311
0.126997
0.0788678
0.0401917
0.103846
0.0514825
0.04314
0.000508641
0.0444026
0.0467347
0.0382183
0.0405939
0.043147
0.0542642
0.059695
0.0529934
0.056294
0.115513
0.111976
0.000341555
0.0428505
0.0405892
0.0960189
0.0741695
0.108509
0.0803301
0.0225907
0.000804072
0.104053
0.0631705
0.0609445
0.126607
0.126461
0.121932
0.121649
0.0707389
0.125181
0.12534
0.0523291
0.0558836
0.0848805
0.0887704
0.09013
0.057565
0.0611346
0.0476761
0.0483306
0.0306255
0.0866917
0.0883901
0.0979096
0.030048
0.117349
0.029077
0.0918395
0.0896098
0.0456749
0.127696
0.0261552
0.00404848
0.0477652
0.0488291
0.0259621
0.0285687
0.0231489
0.0446442
0.0450301
0.062322
0.114203
0.11204
0.0586238
0.0565716
0.0407464
0.0458498
0.11057
0.108522
0.111233
0.138264
0.0479426
0.0477856
0.135986
0.136447
0.0429996
0.041541
0.0524923
0.0411119
0.111376
0.112816
0.112981
0.11135
0.0412996
0.0197541
0.0442011
0.048057
0.0462308
0.0459639
0.116328
0.116419
0.0540121
0.0909212
0.128238
0.124284
0.0596532
0.0580775
0.0659687
0.105797
0.0529647
0.0533333
0.10834
0.000323304
0.0588035
0.0279709
0.0597834
0.0453515
0.0442038
0.0887204
0.0896041
0.0873012
0.132225
0.0606095
0.0561718
0.0597282
0.0564214
0.139514
0.131271
0.0628337
0.0705875
0.068785
0.0629799
0.0727152
0.0396801
0.0397009
0.120557
0.131268
0.110568
0.110487
0.116286
0.113583
0.115148
0.112338
0.0634891
0.0630469
0.0383407
0.061
0.0608777
0.0501834
0.049168
0.0514289
0.0476156
0.138037
0.0560177
0.0576532
0.0589914
0.126755
0.122663
0.13042
0.0477335
0.0506425
0.0476925
0.0502254
0.0897034
0.0821948
0.0854421
0.0871072
0.13677
0.0182084
0.0230784
0.0416176
0.0378134
0.0456962
0.0453309
0.0427892
0.0816906
0.0698649
0.0864608
0.0828879
0.0811054
0.0886817
0.0608634
0.060826
0.0493972
0.0489505
0.0525296
0.046266
0.0403241
0.0523192
0.044744
0.0394587
0.0429994
0.069123
0.0769016
0.0710246
0.0738911
0.052315
0.0489179
0.139369
0.140146
0.138058
0.136755
0.140535
0.0520272
0.0552614
0.0492618
0.0796018
0.0901206
0.0845397
0.0461658
0.0483542
0.0501771
0.0450824
0.0628353
0.061078
0.06268
0.060468
0.0431325
0.0429046
0.0412633
0.0777738
0.150964
0.144046
0.147599
0.148133
0.0660649
0.113558
0.105053
0.104025
0.107376
0.0487269
0.0449377
0.0524143
0.0767413
0.0611164
0.0673582
0.0646739
0.0634388
0.13815
0.0434687
0.040919
0.0406696
0.0433675
0.165931
0.000254707
0.137331
0.193951
0.000526396
0.138565
0.167977
0.13951
0.13949
0.139529
0.170263
0.116021
0.138007
0.138766
0.105596
0.134639
0.132881
0.138421
0.13659
0.119001
0.138468
0.138107
0.116298
0.138661
0.138419
0.00362061
0.139139
0.142245
0.00020748
0.138395
0.13878
0.14045
0.11521
0.140112
0.118244
0.119059
0.135134
0.139311
0.132087
0.13433
0.127141
0.152396
0.128675
0.124271
0.13375
0.129423
0.138824
0.130529
0.127518
0.121671
0.0979497
0.0967189
0.000211604
0.00541155
0.157528
0.166352
0.138517
0.103091
0.106431
0.139277
0.134036
0.1398
0.139588
0.1383
0.0589774
0.0632759
0.0640708
0.123607
0.13919
0.223948
0.126391
0.10329
0.0978915
0.0985188
0.138672
0.00914759
0.131293
0.132701
0.100612
0.106563
0.0390505
0.148877
0.140513
0.23527
0.203163
0.13831
0.138529
0.138456
0.0956111
0.158313
0.146445
0.128346
0.126528
0.145538
0.118737
0.120467
0.106526
0.139816
0.127163
0.137251
0.133796
0.158804
0.147758
0.0748676
0.0694037
0.118393
0.119849
0.143311
0.140204
0.000749471
0.149707
0.181872
0.142206
0.140333
0.139975
0.139293
0.139824
0.126733
0.134404
0.139173
0.055895
0.0557635
0.0595432
0.139059
0.138149
0.138358
0.13795
0.139771
0.143415
0.147682
0.111622
0.0376583
0.13946
0.138091
0.145573
0.153668
0.0498575
0.0452364
0.121935
0.118871
0.161221
0.218811
0.159287
0.17755
0.0573877
0.0562292
0.110519
0.114331
0.117699
0.0851372
0.0913236
0.137784
0.137605
0.137331
0.170734
0.141026
0.138777
0.138686
0.133924
0.13572
0.139124
0.138596
0.132582
0.133023
0.130936
0.139737
0.137015
0.145809
0.149407
0.000449236
0.00428892
0.1174
0.113402
0.122347
0.0636249
0.059362
0.168006
0.170262
0.158078
0.00580609
0.00682475
0.0770692
0.0319661
0.135625
0.0365714
0.0719211
0.032673
0.037142
0.0621889
0.064048
0.0636686
0.0701238
0.0864477
0.0862054
0.0940267
0.0949093
0.07371
0.0420201
0.0592922
0.0319656
0.0512481
0.0710818
0.0707699
0.0571535
0.0569715
0.0635287
0.029501
0.00322025
0.0307067
0.00362692
0.0023839
0.0704568
0.0525439
0.0527677
0.0644282
0.0232676
0.0524558
0.0248456
0.0586512
0.0265666
0.0740984
0.0470766
0.0461649
0.0624616
0.0396702
0.0451845
0.0153043
0.0184437
0.0626713
0.0289351
0.0616872
0.0635866
0.092843
0.105741
0.0401199
0.0557084
0.0965134
0.0468274
0.0630668
0.0632184
0.0687898
0.0691903
0.0526004
0.0524198
0.0252642
0.087511
0.0865884
0.0152501
0.0715543
0.0199504
0.00161568
0.0651159
0.0694125
0.0447829
0.00159572
0.00136924
0.0698144
0.071526
0.0156822
0.00425654
0.0910508
0.0917499
0.0560846
0.0405831
0.0409352
0.0899581
0.0704293
0.0478035
0.0385311
0.0402817
0.0519922
0.074666
0.0745906
0.0248591
0.0221962
0.0315367
0.0311975
0.0553766
0.0600885
0.0471081
0.0499551
0.0362373
0.0585317
0.00687476
0.0540946
0.0571028
0.0578208
0.0621289
0.0421917
0.0666073
0.0405823
0.043497
0.0700641
0.0459546
0.0443844
0.0727524
0.0486885
0.0696343
0.0761483
0.0397768
0.0334214
0.0318936
0.0574625
0.0581499
0.0785886
0.00967339
0.0366141
0.00144459
0.0258598
0.0883997
0.105001
0.0499214
0.0477215
0.071818
0.0425158
0.0338221
0.0694937
0.00979455
0.0500128
0.0586125
0.0663548
0.118416
0.118332
0.0358192
0.036337
0.0706784
0.0527903
0.08405
0.0597977
0.0567227
0.0765777
0.0615084
0.0175589
0.0369604
0.0311303
0.0437874
0.0567954
0.0596446
0.0626865
0.0636567
0.0139524
0.0161631
0.063877
0.0305234
0.0310545
0.0614201
0.05828
0.073674
0.0608661
0.0597895
0.0861424
0.0516269
0.0544001
0.034823
0.0766019
0.0766886
0.0764367
0.0560258
0.0538592
0.0511782
0.0475681
0.105204
0.0572697
0.0574861
0.0338307
0.0325272
0.0319297
0.0585703
0.0713856
0.0694147
0.0743303
0.0720067
0.0557588
0.0572892
0.0650768
0.0511166
0.08837
0.0567255
0.0339167
0.0326151
0.0721214
0.0548238
0.0341023
0.127177
0.0427878
0.0411808
0.029942
0.0338437
0.0250865
0.0608751
0.0572071
0.0196329
0.0847341
0.0272908
0.0854165
0.0838409
0.0620729
0.0589608
0.0456857
0.0466932
0.0337816
0.0860771
0.086988
0.0838333
0.0830192
0.0844857
0.0512458
0.0652396
0.0108129
0.0691938
0.0834741
0.0846402
0.0140696
0.0134679
0.0660971
0.0469356
0.0734684
0.0815153
0.0698079
0.0749173
0.0356811
0.0926331
0.0797316
0.0145168
0.0515553
0.0657974
0.0955456
0.0950291
0.0948254
0.0675159
0.0570296
0.0199821
0.0612832
0.0632243
0.0449853
0.0537074
0.0484391
0.0350489
0.0267705
0.0684054
0.0387652
0.0326918
0.0190382
0.0200913
0.00550462
0.0502162
0.0499409
0.0528835
0.0243185
0.0565659
0.0562495
0.0697149
0.0464612
0.0388239
0.0371933
0.0681728
0.0503745
0.0664955
0.0430298
0.05779
0.126112
0.0654735
0.0818534
0.0753533
0.064837
0.0650718
0.0660684
0.0715148
0.0200249
0.105706
0.100839
0.0153225
0.100483
0.023185
0.0672039
0.0634673
0.0603459
0.0685979
0.0548977
0.0533219
0.0439913
0.00389524
0.0445871
0.034236
0.0131314
0.00982105
0.0780536
0.0695317
0.0465223
0.0474695
0.0461568
0.0455198
0.0689153
0.0673469
0.0646581
0.0642246
0.0543812
0.0528902
0.0397204
0.0411336
0.0391273
0.0498802
0.0484636
0.0359602
0.0633875
0.0637242
0.0541493
0.057199
0.0363003
0.0362607
0.00557721
0.00432102
0.0461241
0.0322482
0.0284365
0.115624
0.10976
0.0347579
0.0327638
0.0361572
0.033115
0.0301762
0.044359
0.0529552
0.0583321
0.0616194
0.03135
0.0962015
0.0920219
0.101824
0.101225
0.100075
0.0672985
0.105962
0.1033
0.0698975
0.0516155
0.0214472
0.0228923
0.0177609
0.0777403
0.0535981
0.0497613
0.0582435
0.0394149
0.0761396
0.0765511
0.0762308
0.0461069
0.0511486
0.0518535
0.0505855
0.0490824
0.0597957
0.0597707
0.0616314
0.0548192
0.0561206
0.0576101
0.0591095
0.0375519
0.0360363
0.0704299
0.0700638
0.0699585
0.0704534
0.0536201
0.0547305
0.0532253
0.0888642
0.0532323
0.0688488
0.0520319
0.0367937
0.00110485
0.0679488
0.0333678
0.0324982
0.102016
0.100733
0.102463
0.0681623
0.0672542
0.0679477
0.0413214
0.0771714
0.0750977
0.078407
0.0818624
0.0815283
0.0803486
0.0802632
0.0511885
0.0523259
0.0710157
0.0119787
0.0701699
0.0224178
0.0917065
0.0565876
0.0406556
0.12221
0.0172376
0.0577185
0.0580103
0.0504335
0.0447671
0.0432022
0.0459424
0.0867317
0.106415
0.103408
0.0890976
0.0853079
0.0603688
0.0613128
0.057736
0.0472659
0.0710098
0.0707404
0.0375929
0.0389793
0.0824286
0.0355792
0.0334287
0.0341188
0.0555849
0.0540942
0.0542367
0.0086663
0.0165945
0.00064118
0.069104
0.0675131
0.101874
0.0794593
0.000779658
0.0463287
0.0448312
0.0894846
0.048355
0.0503325
0.0498081
0.0488086
0.0646653
0.0660411
0.062302
0.0633688
0.0369862
0.0352551
0.0618863
0.0101222
0.0421917
0.043448
0.000570372
0.0700149
0.0696031
0.070639
0.0647404
0.0317197
0.0300373
0.0324028
0.00743468
0.0217663
0.0202431
0.064653
0.0639097
0.0777701
0.0939217
0.0937467
0.0931558
0.100665
0.09933
0.0996612
0.0412361
0.0706786
0.069471
0.0886205
0.087074
0.0878256
0.00053034
0.0324146
0.059112
0.0620759
0.103827
0.102035
0.102541
0.103369
0.0669504
0.0668401
0.0275016
0.0243229
0.108594
0.000954111
0.0742132
0.0732798
0.0669337
0.0675228
0.0656829
0.00102159
0.0936516
0.0887367
0.000455703
0.000790747
0.00178154
0.0765165
0.0764437
0.0762491
0.0518813
0.0360167
0.0386801
0.0962814
0.0725827
0.05214
0.0522663
0.0513461
0.0633435
0.0629539
0.036241
0.000676825
0.0995246
0.0649041
0.0652902
0.0622517
0.0378492
0.0372554
0.0918662
0.0925016
0.0916954
0.093474
0.0932337
0.0957508
0.0582076
0.000492219
0.0559849
0.0312279
0.106923
0.104127
0.0209944
0.0193716
0.0401649
0.0405945
0.0692551
0.0629369
0.0632218
0.0620206
0.0612138
0.0621433
0.0321071
0.0279003
0.0565677
0.000681937
0.000399571
0.0718391
0.0382124
0.0370834
0.0145662
0.0149149
0.0555135
0.033821
0.0323737
0.0400884
0.106186
0.102463
0.0651376
0.0639508
0.0221224
0.0694177
0.0371324
0.0777549
0.0775989
0.0622857
0.0612921
0.0370145
0.0339322
0.000445269
0.000762669
0.0561267
0.0713183
0.0712052
0.00035912
0.0736138
0.0744986
0.0666589
0.0517699
0.0478207
0.0496519
0.0715108
0.0910597
0.0947609
0.095574
0.0964672
0.0964175
0.035013
0.02429
0.0931005
0.0944329
0.0948857
0.0925481
0.079774
0.0777936
0.101719
0.0709191
0.0618087
0.0607333
0.0744501
0.0948484
0.0963146
0.00119815
0.00262401
0.0636288
0.0653996
0.0654861
0.0631641
0.046025
0.0682811
0.0690517
0.0694611
0.05979
0.0513163
0.0519563
0.0408086
0.0377177
0.0397429
0.0384544
0.0690117
0.0678772
0.0670787
0.0679691
0.0532815
0.0544555
0.0534781
0.0541826
0.0378843
0.0390315
0.039855
0.0372399
0.0346768
0.038297
0.0341978
0.000686319
0.00114921
0.0410753
0.041619
0.0563339
0.0547196
0.0554803
0.0556083
0.0267375
0.0308672
0.112669
0.114722
0.107934
0.0387329
0.0901823
0.0924941
0.0660814
0.0656259
0.0666327
0.0656169
0.0711706
0.0688437
0.0751963
0.0742924
0.0850735
0.0860613
0.0484656
0.0470752
0.0470653
0.048391
0.0911003
0.0916137
0.0908592
0.0917819
0.0129545
0.0202672
0.0877348
0.0896705
0.0894636
0.0877829
0.0880572
0.0635585
0.0637638
0.0661832
0.00131651
0.0237239
0.0224092
0.0270774
0.0532056
0.0536005
0.0514745
0.0494275
0.0923321
0.0396573
0.040923
0.059176
0.0622984
0.0587053
0.0487814
0.0501593
0.0500954
0.0394591
0.0645425
0.0652815
0.0641439
0.065859
0.0447016
0.0430159
0.0454709
0.0486322
0.049772
0.0490536
0.0561087
0.0572116
0.0573031
0.0558874
0.0710627
0.070524
0.071328
0.11084
0.10802
0.109223
0.0698285
0.0907312
0.090781
0.0911978
0.0903481
0.0622222
0.062002
0.0607543
0.0634721
0.0348357
0.0387702
0.0402937
0.0498866
0.0512547
0.0504185
0.00452991
0.00458871
0.0600749
0.0383523
0.0140783
0.0171687
0.0432144
0.0419648
0.0444784
0.0569013
0.0596602
0.0585068
0.0441044
0.045562
0.137081
0.137314
0.0221574
0.0611716
0.0584986
0.06096
0.0587055
0.0555331
0.0236777
0.0470958
0.0465134
0.0151528
0.0196114
0.0668002
0.0695708
0.0688153
0.0692683
0.0691533
0.00795031
0.00774507
0.0642623
0.0611347
0.063882
0.0606406
0.0205003
0.0724775
0.0981438
0.00763969
0.0614304
0.0602265
0.0963485
0.0983382
0.0968828
0.0502679
0.0458538
0.0515563
0.0646459
0.0635608
0.0836068
0.0802657
0.0815633
0.103396
0.104987
0.104573
0.103728
0.067071
0.0682756
0.0677849
0.013486
0.0131004
0.0518352
0.0509897
0.0507285
0.0949055
0.0986031
0.0682003
0.0683678
0.0687743
0.0677574
0.05637
0.05129
0.0530699
0.0541986
0.032171
0.0411899
0.0402039
0.0604341
0.0590145
0.0596153
0.0599108
0.0437519
0.0430006
0.0440085
0.0426621
0.0756678
0.0759869
0.0760135
0.0556876
0.0554378
0.0569148
0.0585053
0.0587615
0.0592142
0.0580633
0.0268613
0.0235023
0.0230306
0.028035
0.0361207
0.045203
0.0406613
0.0408848
0.0600435
0.0609606
0.0605507
0.0486369
0.0469766
0.0412351
0.0395298
0.0402673
0.0404694
0.00854625
0.0064983
0.0823206
0.0796431
0.08064
0.0812205
0.0846699
0.0862532
0.0822908
0.103793
0.118948
0.0869388
0.0890857
0.0536177
0.0525829
0.0527381
0.111276
0.107811
0.136486
0.0759699
0.0760437
0.0736214
0.0563106
0.0545656
0.0558328
0.0432792
0.0426624
0.043651
0.0421826
0.0932917
0.0934548
0.0923289
0.0517675
0.0534587
0.0544338
0.0401625
0.0392035
0.0285659
0.0310427
0.0308451
0.045699
0.0476689
0.0469263
0.046423
0.0429992
0.0409826
0.0423804
0.0922719
0.0931795
0.0936623
0.0919174
0.0292405
0.0488329
0.0441833
0.0438305
0.0428723
0.0712607
0.0709167
0.0714148
0.0709636
0.045671
0.0467031
0.0469757
0.0455136
0.0481465
0.0477324
0.0496939
0.0114677
0.0101189
0.0117924
0.0639817
0.0667028
0.065227
0.0660643
0.0642431
0.111865
0.111707
0.0745324
0.0390862
0.0707315
0.0588781
0.0496375
0.0527264
0.0518384
0.050659
0.0714749
0.0712983
0.0853514
0.0875608
0.0840642
0.0458948
0.046648
0.0471678
0.0907793
0.0900378
0.0901052
0.09065
0.0424587
0.0419136
0.0436184
0.0406653
0.01994
0.0158996
0.0178713
0.0896084
0.0886218
0.0892663
0.0707214
0.0699432
0.0919934
0.0919323
0.0321796
0.0280386
0.0289391
0.0321362
0.0308588
0.0316708
0.0857768
0.0576537
0.0591525
0.05857
0.058242
0.0501922
0.0552355
0.0710831
0.0708872
0.0712234
0.0640418
0.0688052
0.0693276
0.0684321
0.0694771
0.0700339
0.0688762
0.0399607
0.041081
0.0400245
0.0409074
0.0409294
0.0418594
0.0566738
0.0591575
0.0596596
0.0666932
0.0667489
0.0656362
0.0857815
0.0854158
0.0850128
0.0430933
0.0454625
0.0465802
0.0424457
0.00713139
0.00851373
0.0536261
0.0347484
0.0308106
0.032784
0.0899204
0.089344
0.0923543
0.000871347
0.00854039
0.0563596
0.0570261
0.057349
0.0750872
0.0752077
0.057049
0.0142109
0.0808647
0.0805878
0.08171
0.0796718
0.117723
0.117187
0.119206
0.0462759
0.0443447
0.0454524
0.0686879
0.0692791
0.0891426
0.0868644
0.0874719
0.0886451
0.0542315
0.0532691
0.0550614
0.0937508
0.0934367
0.0944653
0.0928154
0.0303013
0.0302763
0.0397224
0.0359478
0.0576881
0.059551
0.0575715
0.0579483
0.0590507
0.0200064
0.0155913
0.0625863
0.0599841
0.0621313
0.0598761
0.0582919
0.0718119
0.0721225
0.0870072
0.100874
0.100664
0.100126
0.101562
0.0441244
0.043843
0.0449265
0.0100225
0.0104245
0.0660236
0.0675851
0.0648453
0.0541669
0.0551398
0.0539723
0.0552206
0.0728394
0.0721576
0.0861941
0.0953083
0.0907214
0.0996726
0.0991079
0.0985063
0.0458695
0.0479202
0.0470219
0.0467869
0.0509811
0.0506572
0.0649304
0.0484092
0.0471863
0.0481437
0.0475379
0.118559
0.117232
0.0341564
0.0333697
0.054946
0.0558197
0.0559937
0.0547082
0.0702439
0.069304
0.0698989
0.0696531
0.119557
0.0898954
0.0894446
0.0551432
0.0584705
0.0577468
0.0552322
0.0455262
0.0478406
0.0678804
0.107871
0.106421
0.109045
0.060264
0.0589816
0.0595849
0.059676
0.0347973
0.0394887
0.0368245
0.0238998
0.0211893
0.062253
0.0646222
0.0645227
0.0631193
0.0170908
0.00401921
0.0907477
0.0912052
0.0250959
0.0914351
0.0903656
0.0407331
0.0978933
0.100385
0.076554
0.0794849
0.0489104
0.0448061
0.0813215
0.0674779
0.0664023
0.0678797
0.0731896
0.0466147
0.0445252
0.0458281
0.0488242
0.047631
0.0487015
0.0476416
0.123163
0.124386
0.0353202
0.0370757
0.037421
0.0380898
0.0363363
0.0342582
0.0353919
0.0337976
0.0359582
0.138725
0.0922805
0.0905892
0.0923282
0.0903291
0.0525065
0.0430732
0.0368192
0.0405099
0.0398365
0.0462545
0.0460536
0.0487247
0.0437347
0.137974
0.13816
0.0605791
0.0615898
0.0618528
0.0128554
0.0113177
0.0322608
0.0536329
0.0524359
0.0524188
0.0535512
0.0614846
0.0624066
0.0111757
0.0419256
0.032828
0.0293077
0.0323416
0.0289787
0.0440581
0.0426142
0.0452044
0.000386865
0.0683842
0.0689788
0.0676361
0.108458
0.0986583
0.0710788
0.0491913
0.0578382
0.0590474
0.0576405
0.0953376
0.0960311
0.0503233
0.0518606
0.0506005
0.0567605
0.0546291
0.0560806
0.0533372
0.06142
0.062366
0.0609734
0.12049
0.115138
0.113485
0.113786
0.114904
0.0486515
0.0470143
0.0496222
0.046354
0.00013067
0.0517482
0.0531869
0.052986
0.0678698
0.0661666
0.0707194
0.0333048
0.00611779
0.0960302
0.0618565
0.0628305
0.0647681
0.0648893
0.0294941
0.030729
0.0289115
0.103851
0.104745
0.10322
0.105302
0.108917
0.0594611
0.0605543
0.0604004
0.0595622
0.0842442
0.0832618
0.0587665
0.0578919
0.0972251
0.0961519
0.0967328
0.0964996
0.0277868
0.0301301
0.0285071
0.0345492
0.0348381
0.033898
0.0354528
0.0649043
0.0628658
0.0626663
0.0644987
0.0231715
0.0654892
0.0630227
0.0639872
0.0103665
0.0468639
0.0435252
0.0456714
0.0444274
0.0388166
0.0422911
0.03889
0.0921158
0.091578
0.0920108
0.0803412
0.08034
0.0433924
0.044695
0.0404436
0.0471911
0.0645071
0.0638597
0.0646385
0.0636735
0.0607866
0.059809
0.0603142
0.060287
0.0894621
0.0890313
0.0896726
0.0887849
0.00382366
0.00386084
0.00404882
0.0125743
0.051902
0.049484
0.0435138
0.0420616
0.0426004
0.0429973
0.0400503
0.108876
0.108434
0.107719
0.109749
0.0724128
0.135754
0.134765
0.135041
0.135216
0.0667677
0.0686255
0.0670638
0.0130165
0.0330479
0.0351816
0.0703261
0.0707878
0.069963
0.0898971
0.0897449
0.0896722
0.000183059
0.0525411
0.0492562
0.0507975
0.0702695
0.07049
0.07129
0.0700278
0.041376
0.0420162
0.042306
0.0722826
0.0580067
0.0590575
0.0579295
0.059029
0.000467416
0.056922
0.0525877
0.0559511
0.0517106
0.0708362
0.0678104
0.0724212
0.0489381
0.0501199
0.0592944
0.0569712
0.0395908
0.0632472
0.0624017
0.0624396
0.0631831
0.113784
0.0603863
0.0616613
0.000674177
0.121415
0.121103
0.087705
0.0874963
0.0869951
0.0882014
0.0576094
0.0526174
0.0564703
0.054482
0.0383583
0.04016
0.133264
0.0564516
0.0581846
0.0572181
0.0573811
0.0468402
0.0473542
0.0435645
0.0448634
0.0378544
0.0337057
0.039758
0.0412395
0.0403394
0.0407169
0.00113282
0.0394921
0.0393666
0.0375992
0.0412937
0.0704975
0.0709949
0.0705859
0.0209508
0.0181877
0.0516535
0.0514721
0.0716483
0.0487024
0.0495934
0.137159
0.0745534
0.0870537
0.0863161
0.0874108
0.0858444
0.133076
0.13818
0.025151
0.0103292
0.010096
0.0195622
0.0315886
0.00596539
0.0113751
0.0116561
0.0146933
0.0686876
0.0387516
0.138598
0.00965082
0.00987706
0.00592625
0.00529017
0.138586
0.138426
0.138449
0.138262
0.0091902
0.0597663
0.0588823
0.122295
0.117834
0.127616
0.125515
0.0815722
0.0846021
0.0141105
0.00814561
0.000337497
0.064815
0.00101114
0.0189858
0.000611772
0.0079745
0.00984737
0.130789
0.0809931
0.0308935
0.0229494
0.0250983
0.000400868
0.139166
0.00518571
0.00509332
0.00600338
0.0671684
0.00488494
0.149206
0.144596
0.00745465
0.138004
0.000175654
0.0256833
0.02412
0.0118115
0.0144783
0.0152473
0.120776
0.066142
0.0224693
0.137261
0.137373
0.0323076
0.0248912
0.0227591
0.0604826
0.0899463
0.135755
0.136366
0.0235807
0.0225274
0.129554
0.00846417
0.00171604
0.000330212
0.120329
0.118617
0.00112748
0.00552795
0.0220794
0.000946534
0.000399141
0.00426986
0.121443
0.114838
0.118152
0.117887
0.00308143
0.0327321
0.00672844
0.000235167
0.0229526
0.114177
0.11796
0.0274989
0.00671725
0.00359841
0.00330568
0.130492
0.0412494
0.132049
0.129573
0.130918
0.167952
0.0152072
0.0788136
0.00438357
0.00544205
0.0010063
0.112747
0.00673969
0.0359748
0.0124995
0.0269158
0.0252097
0.0250682
0.0345187
0.0208216
0.02164
0.0219936
0.0177742
0.0247093
0.0272979
0.00888651
0.00913204
0.00199301
0.00352748
0.021601
0.0189046
0.0165105
0.00452881
0.00521359
0.0301785
0.0318814
0.0212357
0.0201652
0.0210988
0.00228007
0.00616806
0.0148663
0.000993296
0.000344901
0.000533633
0.0167457
0.000673124
0.000868777
0.000354758
0.000533141
0.00864819
0.00114789
0.0488616
0.0183418
0.0379472
0.0267635
0.0056831
0.00708382
0.0339689
0.0329127
0.0716431
0.0191082
0.110803
0.0325698
0.0696235
0.000723037
0.00636558
0.132865
0.00445053
0.0974329
0.0805428
0.133061
0.132223
0.0312467
0.0111325
0.138332
0.123192
0.124235
0.0161921
0.0607846
0.059911
0.132028
0.00441502
0.00509252
0.00343596
0.00577601
0.00631226
0.00574426
0.00982477
0.0043751
0.12983
0.0335557
0.00469618
0.00615537
0.00557686
0.00743011
0.0285121
0.0279021
0.0477057
0.110533
0.00865831
0.000181002
0.137785
0.137645
0.0232828
0.0223249
0.029819
0.0286269
0.0190795
0.0797448
0.0240334
0.00881655
0.001418
0.00780414
0.0388314
0.0345177
0.100696
0.0885242
0.00284406
0.00307239
0.134201
0.0404666
0.0282401
0.0285852
0.0291072
0.0066257
0.0603159
0.137964
0.0166478
0.0177776
0.0154908
0.136516
0.136856
0.0254106
0.0219656
0.00714229
0.0601609
0.061932
0.0224824
0.0202304
0.00793991
0.00896456
0.135032
0.136247
0.0676329
0.150712
0.143903
0.138572
0.138399
0.0137319
0.110029
0.0076704
0.00488517
0.0572545
0.00808512
0.00642527
0.00671729
0.0147445
0.101707
0.00872845
0.00981488
0.0237355
0.0053864
0.00569002
0.128721
0.00764412
0.0332229
0.00740073
0.0605116
0.136815
0.136908
0.00206773
0.114719
0.000857087
0.0196978
0.0576876
0.0590211
0.0549734
0.0332049
0.0327576
0.0113831
0.0121128
0.0161389
0.0384367
0.0244797
0.228234
0.185046
0.000484703
0.038897
0.0389917
0.0375795
0.0376167
0.00864249
0.0035311
0.0505224
0.0400877
0.0405459
0.0411997
0.0395914
0.0268181
0.0111924
0.114168
0.121998
0.125179
0.138026
0.138112
0.0248596
0.0347091
0.0246925
0.0266985
0.0280434
0.0993044
0.0927887
0.107228
0.0370501
0.0302862
0.0249762
0.112499
0.0253066
0.065165
0.0670589
0.0691116
0.0361397
0.028911
0.0596876
0.0587272
0.104126
0.138415
0.111155
0.108978
0.130587
0.108434
0.0113368
0.0167598
0.0117106
0.119582
0.118092
0.128306
0.00822285
0.00948602
0.0643582
0.0378419
0.0352603
0.0223522
0.020374
0.0472582
0.0474388
0.0487275
0.0328756
0.0158011
0.030447
0.029781
0.0171723
0.0209421
0.136754
0.137143
0.136737
0.137137
0.0147361
0.0144703
0.115663
0.019228
0.0187778
0.0314377
0.0284966
0.0282291
0.0319544
0.0348061
0.0343288
0.137819
0.136135
0.135576
0.0974955
0.0815881
0.0552614
0.136272
0.0186876
0.0164281
0.0119769
0.102329
0.275709
0.214161
0.240113
0.0539139
0.0520413
0.0870963
0.0344957
0.0337226
0.0305372
0.00146233
0.21416
0.0116992
0.0436081
0.0478831
0.0461986
0.0443005
0.00256285
0.136044
0.136602
0.0106631
0.0296189
0.117279
0.138843
0.138893
0.107398
0.107051
0.000281366
0.0317407
0.0646561
0.0612941
0.0620277
0.062496
0.000387828
0.113793
0.116941
0.11217
0.137223
0.13684
0.0332838
0.0278439
0.0295498
0.0173633
0.0273874
0.0426572
0.0431285
0.0420228
0.0946096
0.000665197
0.110514
0.107616
0.0167868
0.00214683
0.104701
0.109871
0.122111
0.118181
0.0413113
0.0407689
0.0208076
0.133383
0.0353508
0.0344195
0.0362368
0.0360039
0.196734
0.186392
0.0373063
0.0363392
0.0350487
0.0082564
0.010381
0.011029
0.0126153
0.0137755
0.0282984
0.0166878
0.0400209
0.0390122
0.0389118
0.117218
0.120008
0.00175755
0.0377092
0.0478738
0.0484314
0.0496415
0.036951
0.0412127
0.057559
0.13845
0.0127253
0.0494493
0.0554685
0.0534856
0.12261
0.122163
0.0135175
0.135138
0.0235049
0.00881787
0.0530261
0.0544947
0.0553546
0.0573201
0.0564567
0.0959748
0.101508
0.0315288
0.0299731
0.021285
0.0223558
0.0285718
0.0255669
0.0167094
0.0134292
0.0157469
0.0319948
0.0409263
0.0203067
0.00297656
0.106757
0.0325904
0.03227
0.0333839
0.0111571
0.019532
0.124849
0.123731
0.0838413
0.0843644
0.0835533
0.0156076
0.0483736
0.00644731
0.000955112
0.138801
0.0506586
0.0242797
0.0229572
0.0247094
0.0492341
0.0358026
0.000520335
0.140532
0.0557703
0.078585
0.0196768
0.0255753
0.0660728
0.0298741
0.0286276
0.0103311
0.0609326
0.035348
0.00450519
0.114124
0.10628
0.09875
0.0995064
0.0984963
0.00148362
0.003706
0.0379171
0.0117206
0.0502308
0.0544007
0.0442146
0.0444595
0.0347179
0.0352704
0.0392613
0.0185959
0.0193274
0.113309
0.109345
0.138862
0.138794
0.0929027
0.0911863
0.00606825
0.0368467
0.0348057
0.0199197
0.020859
0.0695809
0.0673854
0.00423851
0.0200793
0.0162693
0.0494308
0.0528737
0.120362
0.117741
0.0963414
0.138496
0.138377
0.0411208
0.0402039
0.0442147
0.0435014
0.0269694
0.0241531
0.104873
0.0184439
0.0199651
0.044321
0.0456254
0.0464065
0.0458306
0.0496764
0.0484668
0.0839038
0.0834365
0.0821802
0.0687384
0.0693214
0.0700281
0.0419344
0.0422621
0.12659
0.134682
0.135279
0.0158432
0.00931513
0.129743
0.127342
0.0433099
0.0428324
0.0443286
0.0440692
0.0641944
0.136324
0.144731
0.00197066
0.0354682
0.0363387
0.0398132
0.117511
0.0362949
0.139077
0.140623
0.0759467
0.0342918
0.0357583
0.092727
0.0939889
0.0901034
0.0890139
0.0963143
0.094871
0.00773962
0.00659011
0.0649097
0.063239
0.139254
0.139195
0.139347
0.116199
0.0398663
0.117025
0.0578264
0.0625457
0.0727343
0.0697789
0.0129632
0.0418055
0.0407878
0.10651
0.107992
0.0283118
0.119106
0.0266749
0.0167729
0.138407
0.138211
0.102964
0.0673296
0.0652534
0.0657442
0.0664926
0.0142518
0.0158654
0.113111
0.0347564
0.0361546
0.0445127
0.154653
0.166195
0.046676
0.137916
0.137588
0.0254265
0.0281627
0.138507
0.0616079
0.0632375
0.0624455
0.03596
0.0365756
0.0611855
0.0651408
0.0415151
0.0402525
0.134543
0.00359761
0.0481344
0.0485886
0.0471691
0.0466698
0.0344198
0.111652
0.107278
0.103332
0.0739091
0.0705905
0.0725629
0.121699
0.11715
0.112468
0.0693998
0.0705899
0.0700448
0.133379
0.134646
0.134151
0.0891234
0.0771527
0.0481859
0.0490705
0.0135198
0.0122372
0.0139223
0.116341
0.102499
0.108824
0.1139
0.0463077
0.138802
0.130708
0.128654
0.0167764
0.0190117
0.0609361
0.0630274
0.091887
0.0909879
0.0900555
0.121899
0.124283
0.117964
0.0765841
0.0850549
0.0860977
0.123955
0.124794
0.125828
0.0443856
0.0426501
0.136886
0.137229
0.137412
0.0585349
0.0558538
0.0547365
0.129074
0.130102
0.0683062
0.0689243
0.00549921
0.0618439
0.0613827
0.0416362
0.0417557
0.0182553
0.0195802
0.0399639
0.0414488
0.0412561
0.071328
0.20212
0.256463
0.0304509
0.00318856
0.0681341
0.000789969
0.0874557
0.0884002
0.0389938
0.0135358
0.133078
0.138066
0.138143
0.122836
0.123859
0.0354448
0.0346598
0.138535
0.0764215
0.0760921
0.00485697
0.136337
0.137286
0.137676
0.0633386
0.0626098
0.13194
0.107342
0.1053
0.126917
0.123104
0.131342
0.131482
0.0374343
0.0377627
0.0854738
0.0874626
0.0110783
0.0967029
0.1015
0.180989
0.153225
0.0978102
0.0978002
0.118085
0.111693
0.0736255
0.0736761
0.154988
0.141749
0.141812
0.0327095
0.0320063
0.0325948
0.0463966
0.0463825
0.0147272
0.13499
0.140782
0.127499
0.0638898
0.0613035
0.0770339
0.0767801
0.116531
0.116884
0.118291
0.0305175
0.0328998
0.0794042
0.0802669
0.102418
0.104026
0.0348725
0.0383651
0.0668107
0.0657402
0.0226944
0.0233795
0.0250229
0.107823
0.112251
0.106889
0.0261775
0.0605544
0.0591312
0.0595166
0.0376077
0.0379289
0.0368339
0.0433479
0.0451411
0.151374
0.0378126
0.041268
0.0501459
0.0505582
0.0742391
0.074354
0.075292
0.079883
0.0775172
0.0754287
0.050264
0.0490489
0.0408376
0.0420074
0.0383978
0.0398922
0.0405748
0.0528346
0.0563251
0.0120968
0.0273174
0.0286536
0.0258399
0.0233746
0.0259043
0.000732159
0.137327
0.136476
0.135685
0.138234