/*--------------------------------*- C++ -*----------------------------------*\
  =========                 |
  \\      /  F ield         | OpenFOAM: The Open Source CFD Toolbox
   \\    /   O peration     | Website:  https://openfoam.org
    \\  /    A nd           | Version:  6
     \\/     M anipulation  |
\*---------------------------------------------------------------------------*/
FoamFile
{
    version     2.0;
    format      ascii;
    class       volScalarField;
    location    "1300";
    object      p;
}
// * * * * * * * * * * * * * * * * * * * * * * * * * * * * * * * * * * * * * //

dimensions      [0 2 -2 0 0 0 0];

internalField   nonuniform List<scalar> 
29874
(
2.93987
0.170619
0.145749
-2.95551
0.181363
-4.54309
-1.1672
0.705291
2.53968
0.552748
-2.41648
-0.0414021
-2.0183
-0.2811
-2.17074
-4.36424
-2.95867
-3.27544
0.360537
-0.0270959
3.20305
-1.83537
1.1832
0.871294
3.79377
-0.703088
-2.10898
0.196831
0.447535
-2.68504
-2.52288
-3.63788
-0.599037
0.964536
2.80926
1.37449
2.79661
-1.78251
1.38162
-1.10595
0.969759
1.14099
1.39313
3.18711
-2.43681
1.70498
0.979561
-0.838412
-2.93896
4.18138
-0.355511
-2.47252
-4.1093
2.5815
-0.311581
-0.798849
-0.686392
0.834919
1.77249
-2.26128
-0.725652
2.14312
1.48112
6.11987
0.250372
0.938669
0.29601
1.11816
0.616416
0.548035
-2.0254
-1.54335
7.57483
0.491264
1.25434
-2.64168
-0.936728
-2.38006
4.51609
2.54568
-3.31821
-0.280203
0.983344
-1.5623
14.4112
12.2135
0.457072
0.259673
-1.77437
-0.989389
18.1094
1.13763
1.20133
-0.605632
0.142492
2.90814
0.522319
14.2341
19.508
-0.285481
-0.331693
0.480444
0.920047
4.61407
6.32327
19.3461
17.4977
0.168147
0.679081
0.328406
17.7837
-1.60769
-1.75946
1.08442
0.990416
0.990035
1.96743
1.5998
24.2594
1.64569
1.32396
-3.42363
-0.0581277
-0.129075
-0.132656
3.29598
-1.23309
1.2681
1.63176
3.80121
0.702118
2.94421
2.51693
1.11915
0.737192
1.51354
1.00052
-0.182479
-1.66889
3.47956
0.980808
1.5168
-0.58696
5.55252
0.898467
2.86021
-1.26959
2.04846
0.555725
1.83446
-2.14317
-0.835575
-3.31789
-0.226982
-0.611215
1.12433
3.76027
-2.15741
-1.77207
-1.91858
-1.47641
4.33912
7.14445
0.845026
0.637912
0.951122
0.53283
3.30863
3.86144
1.0149
0.764645
0.621108
0.838968
15.6435
16.9224
0.765142
0.509167
23.4583
3.78621
3.87148
23.261
23.265
-1.47266
3.27419
4.12206
-4.48482
0.412086
0.479496
-0.199652
0.902046
0.916151
-4.78604
3.35202
3.47801
3.22203
1.73881
1.42547
-0.471437
23.1133
23.2165
-1.58186
-5.48509
3.27364
2.77448
2.19088
2.69815
2.20569
-6.17053
2.10471
2.2192
2.03045
0.480441
5.00584
3.33459
-1.40168
1.40327
0.649083
0.47092
0.490266
0.703144
-0.91824
-4.58359
-0.386351
2.13646
0.778597
0.488523
-0.36122
-0.176774
-0.604917
0.760626
0.79166
0.736065
-0.00225972
-0.533042
3.30753
3.43899
4.31565
-0.603444
0.379807
-0.619656
-1.8137
22.1917
21.5279
3.80261
2.81867
20.9583
21.2143
-9.96433
2.5506
-7.23594
15.9661
2.00034
-8.62566
18.127
0.208244
20.5772
16.9716
23.1681
-7.60035
17.1237
-3.79497
18.1861
16.7855
-3.82042
-5.00268
-6.82433
-7.09173
3.16422
3.30379
24.6041
20.433
20.81
-5.94391
-7.34867
-0.318424
2.87171
-6.12478
21.8894
4.04174
-0.605263
-1.65196
0.134805
0.614329
2.23683
1.9708
3.11038
1.13065
0.732317
20.3297
20.0887
4.18312
2.79071
2.91489
-8.21598
-8.37125
16.9538
16.9632
-4.8568
-7.81529
-7.73889
-7.27601
17.7363
3.1686
18.9455
3.02114
3.10822
20.1509
2.12937
-4.96662
22.7702
-9.41189
-9.29265
-5.33751
-5.82043
-5.55508
17.4435
17.4261
-4.56952
3.52663
3.60085
-5.79095
-11.095
20.0851
21.3015
3.89794
3.92568
4.22257
-0.613892
17.1477
16.9401
3.38715
2.78636
17.2278
17.1382
-9.2196
-5.6598
2.91402
2.44445
2.45706
2.38501
20.9818
-5.23643
21.36
21.0245
21.1219
21.2199
2.13547
2.47853
-10.1225
2.8968
1.97586
-3.07435
-8.96572
-8.30928
-8.2795
0.420431
20.614
20.2549
8.39391
24.6208
-3.78997
20.8022
-6.1659
21.1994
21.2572
2.78934
2.86194
2.57382
5.98554
20.0286
20.3096
19.4133
19.9821
0.836527
0.658042
19.6097
18.4443
18.2755
18.6665
17.947
21.1461
21.5374
3.32384
3.12614
3.24154
3.05258
-2.35019
2.20456
2.09913
1.88302
-7.00694
-8.1344
21.916
-5.62286
-5.02099
-10.0409
-9.5249
-10.1498
-10.2302
2.79581
-6.30689
-6.81396
-6.23222
4.48918
4.46783
3.98432
21.2083
20.8999
20.7824
20.7064
15.5307
16.795
16.0056
15.6544
1.68308
17.435
17.1124
19.0182
19.5467
20.9779
21.2203
21.4992
16.6423
17.708
15.6696
16.6589
17.6419
16.2083
-1.22723
-0.708112
-5.07635
-5.82836
-5.92279
-5.41938
17.3584
-3.94648
-3.76311
16.4588
16.8881
18.871
18.1364
18.0072
17.602
19.591
19.6366
1.59296
4.22401
4.29769
4.55993
3.54177
19.8362
19.6435
20.5668
15.0827
14.5239
15.0821
-6.47979
-6.02691
-6.52055
-6.07091
-6.3385
-5.28361
-6.96064
-6.30558
17.5657
17.2743
17.6627
2.65879
1.0584
0.943214
1.00541
0.88523
0.800207
11.4842
3.88943
3.76077
3.67396
19.2658
19.5604
18.7247
-5.23819
19.6087
18.4996
18.825
18.8441
1.07842
21.1391
21.4825
21.3107
20.7211
-2.06565
24.5639
-4.85596
-2.39551
23.4565
-0.542442
-2.43357
0.553642
0.627788
0.641287
-2.78081
-0.821747
2.54274
2.23184
-0.334585
5.50117
6.05889
4.20016
4.55322
-1.78505
1.42976
1.54467
10.5524
0.978744
1.06218
22.4268
0.560818
-4.22018
23.8375
-0.283726
0.928338
-1.18337
10.4116
-1.75442
-1.52782
-1.68393
1.07745
0.570766
-1.98229
-2.13694
-2.12656
-2.01966
3.57173
3.67586
0.286395
0.378629
-0.446887
4.94414
2.75609
2.84067
-0.227273
-0.292013
23.998
22.2343
-1.31395
-1.27454
-1.88818
-0.174288
0.156444
3.18028
-3.80925
0.731564
0.828291
-0.157227
-7.10299
-7.75721
-6.23259
9.14253
0.612783
-4.25855
-2.39605
-0.396863
-0.395491
-0.319788
-0.687222
22.3143
-3.00025
-2.7049
13.9153
13.1279
21.5255
-4.01272
-0.765246
-6.73707
-4.45545
-1.22797
-0.95609
1.15989
13.747
-4.55186
-5.21835
7.41734
8.39804
-0.501117
2.7037
2.68838
-0.586786
0.610127
1.01851
0.837519
1.05321
-4.93854
-5.5452
17.5905
17.9345
2.39647
1.99396
3.85298
4.23568
24.066
0.204135
-4.06413
1.97593
2.13598
2.34202
0.557266
0.619196
1.4887
1.50331
1.38004
18.637
19.1059
18.7075
1.8564
1.89724
1.75755
2.07875
-5.63657
-5.09106
-4.87384
-0.449481
20.7678
3.82657
3.64964
3.37343
3.71564
18.0398
19.0314
9.2027
10.1773
3.17514
0.00200327
2.79443
2.34968
-8.72521
-9.20318
12.2931
11.5071
10.7049
16.3484
15.7402
1.73102
1.81922
1.99256
-2.45521
1.41985
1.0966
4.37709
5.14372
4.77869
-0.804605
-0.966251
6.00781
6.0597
6.68996
0.840733
-3.32389
-3.17874
-2.98221
24.5787
22.4175
0.111808
0.252661
0.553964
18.8673
19.0771
-0.885476
-1.33629
-0.529877
-24.3609
-23.4392
6.47294
-10.556
2.91541
18.6558
3.17068
21.5754
18.748
1.58944
5.85333
5.19514
-11.7633
3.20978
3.10853
3.82399
3.97587
5.86146
-7.78268
-2.95725
17.4101
16.391
3.22422
2.88485
-12.1298
-12.2231
-0.0997229
-12.656
23.634
22.3685
20.5502
20.7953
0.430798
-3.96346
-3.52529
12.9036
17.5965
-3.68492
22.8889
-2.10235
18.8811
5.9597
16.2525
16.4664
-0.542273
-8.87337
-11.5902
15.869
16.2327
-0.0439473
-13.6597
1.9059
2.52341
2.96984
2.63988
-8.59572
-2.66481
2.60299
0.786252
-1.0379
-1.27163
-11.4354
-11.0878
-3.72956
-3.38467
-15.1506
3.60975
3.42202
-18.549
3.30642
-7.9194
-35.8177
3.3071
1.15759
-6.69549
-35.4669
-28.7113
3.54082
-15.6258
-19.3059
18.4755
5.96919
6.20276
-2.74549
17.998
17.8085
3.20662
2.28157
14.5673
21.7886
21.5623
-4.24629
5.3041
5.10212
-9.70501
-9.45019
-12.5019
-12.0672
-3.36083
-0.351905
15.4832
15.4481
-5.91989
-1.23876
-5.23585
0.320681
0.084151
15.2247
14.2207
-8.09749
2.2563
-8.48466
-7.17352
3.43731
16.524
16.6716
4.42327
-5.26168
-11.3051
8.60838
-13.6948
-11.1763
-11.2191
15.238
15.2919
-14.7372
-25.7839
-12.797
14.5884
-18.4056
5.50217
3.19942
-4.63533
-5.80827
4.30744
17.8935
14.7663
1.93966
-24.9524
-5.04024
-1.20166
1.89541
4.17051
4.40132
-10.5027
-10.3592
3.57974
15.8921
2.32391
-0.224683
-2.59015
6.46633
-0.27941
22.1321
18.7473
-11.3763
-7.4481
-2.88224
-2.0601
14.4094
13.447
-1.21868
-2.02696
1.51655
-12.6299
-12.6715
-12.0978
-12.1228
0.603863
-0.489504
-0.676983
2.51116
-4.71531
-3.67397
-5.95187
8.09648
7.29925
6.7319
-2.59022
-3.3105
-13.3048
-13.5331
4.28383
-1.92983
-1.78524
21.367
21.647
21.4063
-11.2214
6.47879
4.26055
7.56705
5.33608
14.9784
14.9062
-9.65113
-4.08199
3.31423
-3.13322
-11.5685
-12.4518
5.90096
-4.42944
-11.6047
2.98539
-7.56319
-8.12778
-9.70933
-10.2616
-16.9449
14.2945
15.2716
15.8091
2.71412
-10.7978
2.76442
2.23016
5.65359
6.70711
-6.67317
-6.72991
-10.9187
2.89755
3.11324
2.45219
2.32146
2.55262
-4.29612
12.7717
-24.286
0.271982
2.28925
2.47584
-7.73318
-7.84061
1.20254
16.6704
-10.3113
-11.2787
-10.8504
5.10546
18.7974
4.18787
1.60999
-22.8809
15.2324
13.2754
4.07804
3.97815
4.17146
1.03046
-2.19426
-20.5741
-0.451588
0.43418
-6.54033
-11.3987
-11.2803
-2.53873
-17.3572
-1.54074
-11.6568
-12.8919
16.776
16.4481
23.858
-11.2864
-11.0424
-11.2157
21.9819
14.8891
14.6689
3.15199
-11.2755
-9.79287
-10.6214
3.98222
-4.51135
6.04646
20.7759
-10.9453
3.14405
-0.525095
4.21184
3.81759
1.70705
1.87127
2.18549
-11.6869
20.4326
0.950024
1.51482
23.5633
2.58383
-3.94372
1.20031
1.12145
-11.8498
12.2264
-0.08452
-0.175437
17.5565
-4.79398
-7.01324
16.2337
-6.61319
-6.05819
1.43635
4.78217
17.122
16.9826
17.4499
15.5842
2.95638
1.91559
0.552883
0.69145
-3.67765
-4.32928
-9.49754
-8.33179
-9.38164
16.1924
16.4429
18.6506
0.537422
0.822664
-11.8621
-11.9928
-8.46632
-8.84872
-5.36117
-4.80058
-6.08469
-4.63983
-4.07909
3.55083
3.09378
15.5547
16.0966
-11.1
22.2286
17.5291
16.9146
-12.026
-11.4155
-11.0654
-12.8188
4.33524
3.37625
3.56114
3.55486
3.45925
-8.32536
2.87728
3.26442
3.42674
-4.31536
-4.21564
-4.69176
-4.17874
2.3501
-11.4763
-10.9581
3.70831
17.2754
5.30378
5.92498
5.5786
16.9907
15.1863
15.2167
16.4148
16.6758
-0.758756
-0.297725
-0.81553
-2.84396
-2.27136
-2.52807
-2.32396
18.5883
18.8395
-11.8259
-11.5961
-11.3551
-11.406
-3.33918
-2.36091
-3.10258
3.15562
-3.25498
4.48946
15.3003
-9.88203
18.3769
-11.0709
16.6082
16.6005
3.37386
3.41975
3.4565
1.81166
1.65906
2.17572
21.315
1.97465
1.86424
2.0624
1.88024
1.94422
1.8766
1.652
-4.84574
-4.36017
6.07661
23.3835
4.05863
-7.29646
5.01205
15.2994
-8.25413
3.71488
-18.5557
-1.84334
-1.76501
-14.2185
15.6862
15.572
15.623
2.61343
2.39615
2.87501
3.13608
2.66644
1.26131
1.11193
1.09821
15.9046
5.46016
4.96833
-10.1866
-9.38409
2.03406
-11.0186
-11.8201
-11.1633
-2.72152
-3.39456
-2.67724
21.5565
-18.1915
23.0407
3.4941
2.82207
3.3169
1.67928
21.7567
17.306
17.5063
3.49445
17.0383
16.5451
16.2267
16.5063
0.526189
1.09547
13.911
13.787
-11.1819
-11.254
-0.345155
-3.47628
-8.05129
-7.0687
23.3463
4.44821
4.01393
4.53619
1.25895
-12.8724
-13.1431
-12.3807
-6.57045
-10.165
-10.0604
1.21503
0.791187
5.52949
3.54247
3.6861
3.42184
3.42644
3.45034
3.37267
21.7286
3.38615
2.77623
2.9117
2.62693
2.93775
23.5509
18.553
-1.20274
-1.47352
3.30801
3.38792
3.40927
3.25454
3.14041
2.59085
15.5176
15.5704
3.44988
20.6807
5.06527
4.53805
-9.80277
-10.478
-10.8686
19.9731
4.20686
3.87977
23.7767
20.9749
20.841
8.54055
8.29207
8.45933
-3.42039
-10.127
-9.0968
4.10121
3.65375
16.2195
16.333
16.5693
0.982718
0.427289
15.6444
22.2446
5.81577
-9.62738
-9.56071
-8.60822
21.7353
21.8095
4.01631
4.06696
3.63099
3.28167
3.09927
3.24386
14.7689
23.8171
0.934892
20.1028
5.27462
5.28329
-16.097
-16.9073
17.5874
17.4903
1.51387
0.862435
0.518648
-0.107505
-0.10398
0.709448
-9.18205
-8.53938
-2.11346
21.7222
24.1123
-11.9106
16.5744
16.1902
-19.6629
-19.5693
15.4491
-11.4029
-12.2374
18.2667
1.93305
2.20971
13.3707
13.6608
-15.5614
-11.8018
21.3832
6.75262
6.88698
-1.26149
-1.48792
-9.62787
-9.45619
24.1239
24.1161
-11.5644
4.50775
4.1637
24.3111
4.38278
4.8309
12.8569
-12.9103
-13.4236
-12.6403
5.11184
3.33129
3.67315
3.29947
3.39542
3.57173
-11.3049
22.9135
3.12014
3.45175
3.51019
3.43048
1.78501
1.38007
2.98934
3.49106
0.0849773
-0.0416752
7.6806
3.20595
3.35691
20.9378
21.3514
-10.4228
-10.8821
-11.1939
-11.0544
16.6989
-11.4865
3.0517
3.27896
-1.77429
16.4023
16.3232
21.28
21.6796
21.2858
21.2267
3.12964
12.8064
12.5428
12.3409
-4.08441
-3.51228
-3.0894
-2.6881
15.7871
15.0187
15.9941
16.4303
-7.00689
-7.33721
-7.61874
22.5962
22.8764
18.2071
18.0945
15.2475
15.5015
15.4032
15.3965
-17.0808
-12.0467
0.531653
0.393433
-5.21966
-9.37227
4.04457
4.35036
-9.7175
-9.67596
-9.29977
-8.36207
4.8173
4.49194
1.23448
1.19884
2.26872
2.40592
16.3978
16.6769
16.2657
15.8817
3.51107
3.449
3.28212
3.46902
-2.22653
21.3128
2.43686
2.70281
2.94163
2.78031
6.4477
-10.4443
-9.81994
-10.3673
-5.89552
-7.22422
-6.90681
-7.21151
15.5643
15.1435
15.4978
-5.78936
4.52002
-9.20741
-7.64274
-9.68285
-9.62975
-9.10833
16.5749
16.4153
16.5996
-8.4039
-11.7763
-11.6595
-11.6679
-11.5768
-10.278
-9.75739
-10.2401
16.4311
16.1779
15.9957
-2.59819
-2.04098
-0.802003
-1.4871
4.42309
4.3635
4.58128
2.08836
2.35793
1.85056
3.96587
4.00456
3.79043
3.51768
3.50097
-11.3331
-11.1039
-11.3714
-11.398
-11.5633
-9.6375
-8.80153
16.6545
16.3589
16.2374
-4.36366
-5.02597
-4.60254
17.8424
-5.2216
-5.41213
-7.99281
-8.5589
19.8109
19.1753
14.7132
14.8709
17.6209
17.3171
2.04868
1.85489
-15.1222
-8.49799
-7.66614
-8.27458
-12.4658
-12.9865
-15.1121
-5.48591
-6.08105
-6.75644
-7.25376
-7.4991
2.9991
2.5242
3.1424
3.16681
-24.1649
-23.765
-11.0442
-11.0276
-10.0369
-10.8833
-8.4292
0.982529
3.64645
-23.3766
14.3057
14.5893
3.53791
3.49278
3.36002
19.956
19.9374
19.7988
-8.46273
-7.44545
2.5155
2.21627
2.47867
3.34611
3.14867
3.13013
3.175
2.16251
2.54815
2.50191
-7.20494
-7.4021
16.1787
16.3221
16.4977
2.66742
1.95094
3.26337
3.44838
3.71933
3.04019
-8.83982
-8.72671
-8.89024
-8.3371
-11.527
16.6404
16.6427
-0.442904
-1.17789
-1.53296
-0.963603
17.9891
17.7936
17.5382
17.8643
5.53068
5.67539
5.65132
-2.73839
-2.00866
-1.22866
-1.27223
-1.03933
-1.30567
-2.02277
16.1586
17.2587
16.5553
16.8802
18.852
-6.76535
-7.21025
-6.6939
14.5156
14.2652
13.9845
16.3336
16.7404
-8.24422
-9.19868
-8.6415
-8.46817
-5.88141
-5.37303
2.83113
2.44166
2.73818
2.62132
3.41721
3.82481
3.13736
5.04208
4.62422
2.54177
2.87224
15.6468
15.9228
15.7554
1.0907
0.913352
2.2114
2.3649
2.35248
2.50055
14.7989
15.0618
15.1
-7.89795
-8.24547
-6.94088
-8.08914
3.73365
3.75092
3.58471
-7.75532
-7.39153
-8.16828
17.5178
17.542
15.9867
16.0197
15.7755
16.9419
16.6373
16.6707
16.6041
17.5678
17.6348
17.4534
3.14052
3.33005
3.15406
2.89841
-13.808
16.687
16.3755
16.7512
16.5524
-11.8402
-11.8379
-11.676
-11.5231
-6.01351
-5.5022
-6.38541
-6.83072
16.8488
16.8506
16.2458
22.8963
22.9004
22.962
0.536084
2.5883
2.16742
2.42292
13.5486
5.09548
4.81803
3.91672
-8.8729
-11.7202
-1.62401
-10.699
-10.8366
-10.6289
-10.1281
-11.9041
-11.8583
3.29368
3.28284
2.93531
16.701
16.5103
16.4155
3.52863
3.40833
3.4022
3.81012
21.6351
21.7255
21.403
21.689
-6.12916
-5.91561
-5.71111
3.80448
3.65288
3.81125
5.27111
4.47054
4.67583
4.62645
-7.75496
-7.95459
-7.50377
-12.2835
-12.3613
-12.3042
5.29189
15.2443
14.7298
14.594
14.8685
-4.90797
-5.24296
2.89145
2.6454
3.7914
-0.204459
-11.2899
-11.0526
-10.7048
1.33194
2.21313
0.968293
-9.53225
-9.12177
-8.79625
-8.50005
-10.0367
-10.2796
-12.5819
-12.3494
-11.7363
0.977534
0.787708
-0.0704443
2.46198
2.39227
2.3858
-8.87549
-8.55626
-8.88752
-8.67952
-26.7391
-25.8556
-3.47108
-10.7837
17.603
21.2371
3.76792
3.39413
3.80839
20.2322
-26.3583
-1.93282
-1.41508
-1.9275
7.79067
7.75108
-2.23424
21.6432
1.8867
1.74804
2.0915
1.91369
1.86817
1.51378
1.56513
-6.42063
-7.53473
-6.80333
1.96485
2.55693
3.12612
2.95065
2.68978
2.9449
-3.46015
-3.74914
-3.32113
3.51023
3.359
3.26284
3.09744
-13.4822
-12.8551
-10.8867
-10.3278
-2.2
0.0598248
-0.358836
0.123263
0.0564585
-6.74179
-6.35375
-10.2789
-10.0181
-10.5901
-10.6138
-2.066
-11.8179
-11.8688
4.24502
3.35312
3.5485
3.7206
3.51237
17.4741
17.7814
17.6764
-5.59816
-5.36676
-11.0289
-11.4287
-11.3714
-3.48632
-2.99271
-2.47339
-1.7092
2.82216
2.40977
-11.4148
-12.9309
-11.3244
3.46543
3.43664
3.61195
17.1108
16.6546
16.4275
16.8616
16.4541
16.531
1.76624
-5.01457
-5.8022
-5.95933
-5.97707
-3.64069
-3.94086
16.7425
17.074
-3.82731
-2.87992
-2.42975
-2.53936
4.60825
3.98361
4.46277
4.5625
-2.36673
5.63669
5.54862
-9.44881
-9.8419
-9.86341
-9.9703
-10.5121
-10.7617
1.25563
2.85645
3.18604
3.01737
-1.0385
-1.68484
-1.64491
-1.62943
22.1016
17.2738
17.8473
-15.6895
-16.8869
-9.4449
-8.81953
-9.26896
-8.41057
-21.5809
-4.80452
4.35416
4.60816
-18.6541
3.23236
3.07741
-9.2218
4.22543
4.31
3.66902
3.74469
20.4249
20.7038
1.87703
-10.5185
-9.84934
-10.4287
4.02368
-6.09151
-6.82819
-6.58817
-5.49652
-6.16008
-4.63079
-5.22281
2.40688
2.18095
17.6108
-10.4496
-10.0962
-9.57768
-10.5187
16.2052
15.7741
16.535
16.6338
3.31993
3.02693
2.78552
3.22342
3.17015
20.5237
-5.22246
-4.97544
-5.11123
-4.24259
-7.70978
-8.44478
-8.59659
-8.32246
1.52429
1.45782
14.3932
14.0973
14.4539
-5.91563
-5.84021
-11.6303
-3.78918
-4.18154
-3.16616
-2.77113
-0.541082
-1.01859
21.6601
17.6713
-6.81884
-6.3005
-6.54381
-6.90276
16.6469
16.8089
16.4861
21.1364
3.49976
3.67643
3.29349
1.31439
1.26653
3.18361
-5.94073
-1.76604
-0.442068
-1.00452
3.88579
3.60016
-4.33664
-3.52273
-4.67536
-12.7701
-12.1365
-12.0769
-12.1587
-0.960496
0.0809955
-0.896191
3.00773
2.82131
3.12558
2.56193
2.80454
20.48
20.8696
20.8631
21.1486
23.3318
-3.60383
-2.8441
-3.58182
2.31879
2.66687
2.92217
22.2677
23.4821
4.82133
-11.4129
-11.5207
0.799198
0.933101
-11.1204
-11.2544
-10.9408
3.34794
3.36375
3.53098
3.42138
2.46503
-1.04294
-0.694585
0.0530603
0.09735
2.30787
1.99468
14.6732
14.8837
3.70908
3.7764
3.81077
3.66284
-13.5149
-12.5057
-13.573
-11.5706
-11.3864
-11.5081
-10.7557
-8.03613
-7.39716
-8.54197
-8.67115
-15.1724
-11.9908
-12.0714
-11.8301
19.2109
20.8304
20.9373
20.2717
20.597
-9.41178
-9.5369
-9.07295
4.35346
4.20236
4.38221
1.64195
1.68881
-2.49682
-3.25355
-3.0214
-3.65648
1.19101
0.60599
2.12475
1.72596
-0.525629
-1.20939
-0.573894
-0.458374
3.15237
3.23244
3.37809
2.9593
-4.67686
-4.83323
-4.65959
-20.9669
17.3934
17.6404
-6.9655
-7.71564
-7.59996
-7.20945
-9.44913
1.61339
1.04963
1.84439
1.52184
6.14617
4.92491
5.71418
5.26712
4.8425
-11.0891
-10.999
-10.5132
-19.255
20.3454
20.3842
3.85825
3.86594
3.39823
5.03567
5.23186
4.98226
24.6884
-11.5901
-11.9935
-12.1487
2.05921
-11.7641
-11.9341
-11.9714
18.1008
18.0056
17.8784
-11.8842
-1.81541
-1.17592
-0.572935
-0.108357
22.4115
-10.5299
-10.2917
-9.31701
-10.9264
3.67249
3.50861
3.55972
16.7154
16.6702
-10.9066
-10.9229
21.6559
0.850432
0.0132729
0.999977
1.59596
-8.2073
-7.46774
-7.32729
17.1009
1.48521
1.50914
2.99782
3.11815
2.72089
2.9414
19.6989
20.1865
19.9846
20.4521
17.1491
16.1769
-7.58555
-2.62144
-1.89588
-2.22199
-2.32234
16.885
17.17
16.6459
16.5844
-6.35386
-6.40486
-8.63102
-8.01567
-8.51994
-8.63895
7.13859
-7.6258
-8.00301
-7.93417
-8.29341
2.44845
3.22758
3.35009
-9.12877
-8.63032
15.5421
15.3808
3.36902
16.7829
16.8225
0.607372
4.79028
2.34058
2.36576
2.62886
2.46632
-5.66957
0.20061
-17.6829
23.9755
23.9826
19.8176
-16.268
24.057
23.9942
23.9644
-20.4595
-0.292036
-14.6127
-0.0805714
23.8664
22.7825
23.3959
23.5903
-1.79525
-0.0218757
0.00304847
0.0710172
24.1978
-4.19411
-3.6207
6.22817
7.09841
-3.98318
-4.45172
-0.977246
-0.151223
20.1204
24.1947
23.5105
-0.504539
22.1397
23.0289
23.4059
22.4657
20.903
6.76363
1.88518
-16.2393
18.0157
20.3125
23.276
0.418047
23.9813
23.9659
23.9608
-1.9139
23.839
-4.12161
-4.54062
23.6355
-4.07628
23.7171
-12.0098
-12.4889
22.0513
19.8525
20.805
1.03829
-2.86378
22.0057
1.00003
0.780771
-16.3613
20.2876
20.6931
0.481645
-0.543642
0.596847
0.827408
-19.2519
-19.7783
7.30743
-25.9821
24.4019
24.5633
0.544216
0.318027
23.3816
22.1961
-19.4785
22.1635
23.7131
21.6065
9.76949
11.3532
10.6422
-6.72553
21.6597
4.48149
24.3584
24.6687
22.1734
8.39302
7.73858
19.3729
24.3658
22.7567
22.8193
0.873971
-8.36788
5.85206
6.77768
6.1565
-3.54597
20.1163
-1.25883
24.4726
24.4081
24.4826
6.94648
20.1113
22.1035
20.2677
18.198
18.143
17.9324
22.1377
23.2511
23.1963
22.8273
23.227
22.9989
18.5122
24.0963
24.0961
19.8781
18.9184
20.2816
23.0694
23.4855
23.4589
23.394
16.394
16.4528
22.7075
22.883
22.9438
24.5012
-27.8423
23.648
20.807
24.6338
24.6643
23.1395
23.1927
23.0346
23.5133
23.4695
22.1742
22.4448
1.76169
-21.722
-11.5301
22.8473
-27.7714
-26.6782
-13.1883
22.1069
2.9232
21.1135
-0.540025
22.2538
4.17004
22.8163
24.2636
1.40302
24.494
0.358748
0.0409765
1.92367
2.20528
19.6217
23.9328
-2.70501
0.841832
1.11301
21.4464
-12.2985
-12.4106
2.69662
23.9121
20.4435
24.554
24.3883
24.3576
24.3446
24.0445
23.6102
3.49732
22.3652
23.609
23.5534
20.4794
20.3487
22.6948
22.7069
-2.53718
11.0353
24.2369
24.5761
1.61872
1.6486
22.5051
22.4459
21.0468
21.0828
18.3242
1.51101
-14.8225
20.0038
20.6864
19.9256
-1.05082
-1.0322
-0.691893
-0.182463
22.8334
22.6619
1.96829
-13.1614
20.5862
17.8471
17.4762
23.3705
-1.32065
0.242136
19.9928
20.0867
21.45
-2.94252
-2.75705
17.4663
17.5511
23.1241
-5.08361
-6.11114
17.0112
17.1644
19.4342
19.5045
2.13911
1.8358
-0.275613
-3.44274
-3.95347
0.451295
0.391473
21.904
-0.769873
22.8542
17.4692
-2.54916
22.5181
18.2554
18.537
-22.8365
-0.488645
21.66
21.8041
20.9998
21.8137
21.8444
7.16713
22.0799
22.3191
22.4371
-0.82707
2.382
2.27144
23.1752
4.33906
22.5678
-20.9741
-2.46554
-1.927
0.110981
22.1429
22.21
21.023
-24.1168
19.5447
18.3681
22.0421
-3.36306
-3.2919
22.0616
21.7698
21.8444
21.9
21.9529
-25.5452
24.2441
-5.62926
21.7743
18.2433
18.132
18.3394
22.788
21.7309
-1.11932
7.31834
6.75339
0.0759403
0.159659
-18.1586
22.1239
-18.2517
18.4393
18.4107
7.91422
8.65617
7.75091
-3.86733
-3.70052
-18.1654
-0.319089
18.6222
1.451
1.55314
1.6745
18.6929
22.283
-1.85551
-2.44113
-0.186826
-2.08102
0.806758
0.387019
1.73688
-3.26752
19.02
-8.96704
-7.29935
1.39443
1.04205
2.33878
22.1166
21.9261
-0.497694
-13.7252
22.0431
17.772
18.0046
17.2111
16.9961
16.9345
-10.9868
23.4818
22.5603
22.585
18.4386
20.0664
1.81285
1.72455
2.1821
1.88054
23.5208
23.4935
-2.31919
20.2419
20.1973
19.9111
19.8574
19.4235
20.919
20.7855
20.5188
1.02222
1.13216
1.29495
4.71091
1.92517
0.62417
3.47579
-6.89424
-6.66554
23.7911
9.2834
-4.84185
-3.83556
-4.23733
-11.1904
-10.7924
3.54541
19.5394
19.0463
19.0608
24.4803
0.0111585
20.9777
-10.7238
-10.9591
-11.0656
-10.8222
24.1572
3.08509
2.82163
24.0231
17.7783
-4.87443
0.684107
0.786684
-0.540284
-0.458963
24.6265
17.6986
-6.00873
-6.18303
-6.03066
-6.91563
24.3261
-1.82129
-2.353
-1.77935
0.726771
0.693541
-3.1173
18.7404
18.6104
-0.599226
19.3836
-8.55907
-8.31389
-8.76321
0.50126
22.9755
-0.857645
-0.449897
23.4001
23.2299
2.02035
1.66047
7.8245
9.07885
17.2622
17.2431
23.2732
-7.62011
18.0064
17.949
17.7302
17.8026
0.71305
-1.22869
-9.4499
-9.90682
-10.4474
23.8506
23.8477
-6.09844
-6.30662
-6.24561
-10.4796
-8.38128
-12.815
-13.2263
17.3807
-4.67025
-4.42703
24.0061
16.6699
17.113
17.0249
16.6394
18.3855
18.5094
-1.58066
-2.51037
23.216
-4.29247
-4.60599
-4.9353
1.69254
1.13683
23.0196
0.700412
21.8514
22.611
-3.78738
-3.72644
-3.09141
-8.43018
-7.92555
14.8425
14.1769
18.7485
18.5147
17.841
18.4699
18.3618
18.8711
19.3418
19.1495
18.9214
18.7601
17.0705
21.0015
22.2918
10.8194
-12.4489
-12.6075
-12.2412
23.5889
21.0922
3.5939
3.32947
2.16514
2.2571
2.05246
20.1135
-11.0091
-3.48491
23.4118
-0.0113501
-4.95513
16.6236
16.278
16.2608
-0.513686
22.1512
24.6549
-6.36126
-3.03751
-0.581004
19.2808
19.4187
0.845476
-13.5789
-14.0391
21.7824
-5.17166
-9.9991
22.6525
-0.808503
-1.33078
3.4635
3.55143
-0.646902
20.3209
-17.1756
18.1224
21.2744
20.35
19.9517
0.839216
0.499108
18.7107
18.7531
18.4238
23.2439
23.2182
0.204355
-0.505792
0.942894
0.97161
3.74646
3.49948
24.388
17.1276
17.2845
23.1027
23.0704
2.02056
1.90542
-5.31491
-3.35659
-3.32402
-0.213956
-0.494162
0.753717
0.565814
12.4952
0.820728
0.823413
-10.6128
-10.4147
17.1192
17.1853
-6.92654
-6.55648
0.541508
-18.1089
-17.4293
17.5079
17.3168
17.2298
17.1678
-6.10177
-6.45816
2.23006
2.11333
1.97464
1.50119
2.10944
2.35749
21.4772
21.5222
1.48102
1.69073
1.56345
22.3684
21.3862
6.50618
7.45707
21.1196
16.9574
16.9373
16.8271
0.189482
-6.59871
-5.51718
23.2198
18.8538
18.7222
-10.2397
0.739949
22.0992
-1.55114
-1.43662
-3.24754
21.6213
21.8078
4.29998
4.41072
4.78877
4.80059
3.31028
3.2403
-3.56416
-3.63321
-0.198743
-0.387815
0.67326
0.635533
0.664964
4.75878
-8.29434
-1.75343
16.7811
17.0257
15.531
16.5175
17.7941
18.0902
18.0891
3.33138
3.23763
18.2392
-3.42776
-13.7227
19.7246
1.19172
1.27907
5.78752
0.802184
-0.356674
0.326865
0.507764
16.4282
16.6374
-0.739061
-10.6588
-10.0653
17.3301
2.72289
2.09249
-6.08606
0.615536
0.666597
17.0509
-13.3071
0.456633
-1.54171
-0.429723
-0.236119
17.9531
17.8324
19.4468
18.8765
17.7022
18.1125
4.50356
22.8192
16.7427
16.8191
16.8229
-6.95387
21.9825
-6.91072
-7.35031
-9.50187
1.82081
1.70143
1.97796
3.26093
-5.36588
-6.15402
2.53632
3.02517
2.80099
1.594
1.32094
1.27557
0.045611
-0.0900142
16.9238
16.852
20.9342
21.0738
20.9582
0.991513
0.918379
1.43094
1.51552
-13.1114
-0.654344
5.36078
6.32493
-6.21096
-6.32201
-9.19069
-9.60195
3.09712
3.05278
2.97145
8.80381
8.12051
9.46335
-0.330569
-0.331334
-0.145309
1.53179
1.82889
1.54541
16.0738
16.8081
2.51374
2.38405
2.12773
-10.6812
-10.3381
-10.7765
1.52552
1.44074
-10.8763
-11.1187
-5.53964
-7.05796
-6.98646
17.4524
17.3911
-18.279
-17.6481
17.427
17.1268
17.0567
3.03764
-2.80015
-0.26396
16.4745
23.8853
0.492366
22.9053
2.73584
2.8105
-9.86321
21.588
2.73103
1.38668
1.26055
2.992
2.9302
16.7042
16.8581
0.672384
5.25567
5.11288
-5.38685
4.26072
4.01222
3.75396
0.200263
-0.196412
6.01281
3.55212
3.56348
5.14277
5.46894
1.02475
1.32801
18.4206
18.3752
2.89393
3.15427
-24.3514
3.9219
4.09296
-4.21732
-5.34057
3.38804
3.36537
5.3884
5.69073
4.15135
4.0325
-2.27013
-2.4411
-2.62928
18.17
18.3355
18.4398
17.1931
17.3407
21.5919
-1.50208
-1.39962
8.03723
-4.98299
-5.13024
1.37158
1.15495
-4.51803
-3.62527
-4.73418
-8.49396
-8.88386
1.52441
1.6602
-0.376339
-0.142888
17.7627
16.9655
-10.4535
-10.1901
-8.50402
-8.88303
-9.06766
-7.39981
-6.93082
-8.38835
21.2529
-4.57444
-4.39898
-4.51492
18.2629
18.2801
18.6531
16.0696
15.6608
-0.704057
19.9788
19.9303
16.6062
16.5355
1.00868
1.17553
1.26117
3.51955
3.06941
3.04899
16.4748
16.6542
21.5806
21.3991
18.2001
17.8034
17.8324
-3.03235
-3.42913
-6.83251
-14.514
-14.2129
20.3091
20.2765
20.5937
23.4613
3.96193
4.41437
4.90199
-0.288994
-0.244599
3.49842
17.771
18.3876
17.9383
18.4927
17.6315
16.7998
17.4996
18.0997
1.30303
1.27715
-5.87381
-5.38793
-5.85601
-3.24107
-2.96434
-22.2262
-2.26224
-2.48157
-9.52451
-1.87428
20.4204
20.4392
-3.85839
-3.48368
-3.48078
1.33624
1.2736
1.09486
1.11454
0.668742
19.0197
2.08325
2.5137
-0.196417
-0.07078
-0.186695
-14.1333
-13.4721
-11.9971
22.8606
22.7123
-16.0797
-15.508
0.778422
1.40098
20.9076
21.0027
20.4109
20.9373
-0.546624
-0.519893
-3.86037
-4.33059
-0.11094
-0.334963
-0.613438
17.1645
17.1862
15.7754
0.797045
0.726486
0.759612
-2.90796
-4.92277
-4.75684
-5.31984
0.946285
1.86304
2.5433
2.06857
0.925133
0.833295
0.760239
3.96547
-0.918497
-0.670692
20.0622
8.11512
0.74176
19.8877
19.4116
-13.4019
21.479
1.19293
-12.0202
-10.7195
-8.0487
-11.1847
11.0532
7.32039
-1.71336
6.11451
-4.87729
-1.29115
9.64963
5.15345
-17.2463
8.42517
4.38504
-9.6162
6.12881
12.2715
11.6336
-7.76838
7.16822
5.53418
9.81202
-8.8053
-15.8016
10.2808
-11.5031
11.6247
6.53123
2.76122
-6.72234
-13.1844
10.9295
12.6724
6.57223
6.59613
6.56728
14.496
9.53851
-0.853147
-1.7421
-1.88417
-21.616
10.3477
11.917
11.4791
2.42118
3.22913
2.53208
3.35488
4.97993
10.0061
-13.6813
-14.0282
-7.50567
7.05902
-12.4033
1.6988
10.9281
-1.59305
-6.60938
10.9536
2.16279
-2.241
-8.34598
11.3259
12.2151
-30.7714
10.8315
-6.55228
0.00162209
14.9618
6.83545
-10.2463
21.1218
21.5389
-11.2076
-11.6595
6.69369
7.62157
7.6347
-7.01572
0.106287
5.19786
2.42267
12.639
9.53225
12.7259
-4.66451
-4.77655
10.2984
9.906
10.5869
-19.0626
13.2539
13.1324
-4.95285
-5.21647
2.86961
5.38391
7.22445
7.73785
-13.5475
-14.7662
9.78334
10.5378
12.9901
13.2722
-0.0659232
0.967623
-14.8732
-15.8597
-0.280381
0.617173
-14.5419
-9.10815
-10.237
8.21416
7.84354
-13.1777
9.54052
8.72489
4.6697
4.94203
5.71156
6.06136
-13.0621
11.1061
8.51805
-0.722021
1.89043
-13.2142
7.92073
-14.6088
-1.33524
14.6611
-1.91487
2.00177
10.8336
6.43254
-0.252155
0.426885
-11.99
-2.56795
13.3098
2.12595
1.21114
-1.19096
5.59054
-0.461185
-1.40661
7.99985
8.85381
8.59454
6.64791
16.2124
-3.47377
13.6707
11.3016
11.8046
1.76984
0.990363
15.6439
15.8235
4.85631
-19.6508
-0.438373
0.390518
-11.2217
-11.3671
9.86884
9.86324
-8.82736
-9.35777
-10.3522
13.7066
13.9638
8.7527
-29.0382
9.20959
10.5388
10.6993
-16.6413
-3.72044
6.87943
-17.8122
5.52613
-22.0197
-4.92897
-3.42354
2.88519
2.51454
-14.6174
-1.27124
5.75402
2.65462
1.96109
1.09724
1.81825
9.86871
12.7235
12.9516
15.761
-2.17195
-2.9816
-12.8249
10.0822
5.44148
-15.228
7.37497
7.36596
7.78982
1.49937
2.09391
10.5738
5.91327
6.08479
2.63515
2.88352
10.4057
9.62231
3.02246
3.78241
-4.89763
11.2801
10.8409
-14.6392
2.37901
2.48248
2.17793
2.4439
2.61546
2.50215
-13.1702
-2.66459
1.34967
2.38845
3.22534
5.27393
2.66949
2.32667
12.4131
12.1234
3.2631
-11.3347
12.1338
-15.3665
-0.949222
-0.285602
12.2189
11.9958
9.55241
9.03448
-11.9963
6.27565
-4.99862
-4.94304
7.75038
8.50496
5.55859
-0.377238
-0.0729013
0.485443
13.2609
14.0882
8.71887
9.08986
10.1314
10.6507
10.4881
10.6764
5.06021
4.359
-12.4515
-12.5993
-0.99483
-0.763184
-1.49917
-1.69239
21.1254
21.0902
21.3489
10.8338
10.5127
10.4605
5.56925
5.3486
11.0904
11.1376
11.2143
3.31797
2.37502
14.0789
13.2298
10.9447
10.7868
11.242
11.5348
-12.0619
14.9592
15.0882
-0.608099
-1.78019
9.21284
8.96627
3.77785
4.37507
2.28359
2.99057
9.4216
6.37932
1.00685
-7.17466
-7.62156
-13.0975
1.85699
1.50078
2.18819
2.98159
8.34486
-9.60225
-10.4541
-9.44776
-1.98007
-0.17201
0.795462
15.0241
15.6722
3.23091
2.62851
11.5595
11.8099
-3.20765
-3.47162
13.6226
13.8232
2.43461
3.15137
9.91225
10.129
10.3456
10.0817
8.72859
8.92396
-3.7132
-2.80328
11.2084
11.0583
-16.2441
-15.0913
21.9747
8.89297
9.57225
9.77834
-8.74838
-9.46561
-1.48878
-1.32568
-5.07975
5.40532
5.41211
2.98689
2.41667
11.0995
11.273
4.71165
-25.3493
-15.0247
5.93943
8.32423
11.7295
9.735
-1.12877
4.34331
3.78262
9.46702
10.12
13.7944
14.3429
13.842
10.9039
10.3721
-13.0198
-4.05518
10.4684
10.6713
10.4012
10.8656
3.81786
3.59243
3.29145
3.39171
1.82673
4.00747
3.19207
6.35824
5.52982
5.73137
5.73901
-11.902
-11.9089
-11.9333