/*--------------------------------*- C++ -*----------------------------------*\
  =========                 |
  \\      /  F ield         | OpenFOAM: The Open Source CFD Toolbox
   \\    /   O peration     | Website:  https://openfoam.org
    \\  /    A nd           | Version:  6
     \\/     M anipulation  |
\*---------------------------------------------------------------------------*/
FoamFile
{
    version     2.0;
    format      ascii;
    class       surfaceScalarField;
    location    "1300";
    object      phi;
}
// * * * * * * * * * * * * * * * * * * * * * * * * * * * * * * * * * * * * * //

dimensions      [0 3 -1 0 0 0 0];

internalField   nonuniform List<scalar> 
44596
(
1.53699
-2.16341
0.626419
1.53699
1.4464
-1.4464
1.93749
-0.491088
-0.0938469
-2.14723
2.10003
-0.563038
1.31067
-1.31067
0.215895
1.81681
-2.21224
0.765834
-0.267223
2.30057
-0.799847
-1.20634
0.799847
1.30018
-0.560624
-1.34413
0.560624
0.750046
-0.594079
-0.825728
0.825728
-1.17061
1.38651
1.19421
0.637237
-1.83144
0.0430282
1.5031
-1.54613
1.42612
-1.42612
-0.147145
-1.67531
1.82245
1.54835
-0.0868146
-1.46153
1.1242
-1.1242
-1.10457
1.10457
1.12336
-1.12336
0.237966
1.2444
-1.48236
1.37104
-1.37104
1.46849
0.0798616
-1.3161
1.3161
0.266986
1.35002
-1.61701
-1.58262
1.58262
0.601277
0.582175
-1.18345
1.94172
-0.515601
-1.25429
-0.217767
1.47205
-1.42958
1.42958
0.706578
1.29323
-0.793321
1.4999
1.47166
-1.7669
0.295242
-1.62248
1.62248
1.05466
-0.816695
1.24614
-1.41678
0.170634
0.961897
-0.961897
1.20151
-1.34866
-2.31056
0.831299
-0.8313
1.00876
-1.09558
1.84006
-1.92687
-1.5873
-0.613845
-0.78995
-0.797353
-0.897741
0.897741
-1.03975
1.08278
1.98052
0.0634179
1.48734
-1.55076
-1.53507
0.135137
1.39994
-1.55076
-0.458421
0.00814198
-1.43772
0.113476
0.211531
0.259651
-1.81041
-1.50725
1.81041
0.529389
-1.20792
1.99787
-1.43772
-0.943493
-0.473285
-1.55781
1.55781
0.896641
-0.390633
-0.506008
-0.814181
0.415323
0.398858
0.703075
-0.113676
-0.589398
-0.00137998
-0.0923177
0.0936976
-0.0597575
-0.064085
0.123843
0.061435
1.44166
0.85376
-0.792325
-0.0032355
-1.4583
-1.20571
1.20248
-0.0394856
-0.00361234
0.0430979
0.124301
1.06991
-0.793389
0.55496
0.238429
-1.66168
-0.0136314
-0.349251
0.928589
-0.579338
0.416679
0.595152
-1.01183
0.048142
-0.882253
0.834111
0.00914068
0.0671785
-0.0763192
-0.0359443
0.00981348
0.0261308
0.0963735
-1.02917
0.9328
0.805385
0.636278
0.710453
-0.608684
-0.101769
1.24564
-0.14247
-1.10317
-0.163187
-1.09472
1.25791
1.53239
-1.69557
-0.0218336
-0.0141107
0.00513874
-0.0446244
-0.934792
-0.726886
-0.0373049
-0.897487
-1.07614
-0.00681632
0.033051
-0.0262347
-1.30892
-0.14938
-0.440884
-0.868032
0.0104537
-0.803843
-0.803727
-0.679542
-0.6087
-0.325552
0.934252
-1.19904
0.981269
0.000672556
-0.000672558
-1.10216
1.25402
-0.151858
0.251686
0.90479
-1.15648
0.818805
0.0689638
-0.887769
0.016527
0.912062
0.913168
0.89843
-0.481198
0.897877
-0.886344
-0.319368
-1.13137
-0.307619
1.43899
-1.19809
0.260067
0.938022
0.536478
-0.853571
0.317093
1.0561
0.943799
-0.744746
0.754426
-0.00968038
-0.882677
1.05331
0.848639
-0.211402
0.253525
-1.18854
0.93501
-0.980063
-1.02847
-0.282895
0.98597
-0.897789
-1.41277
0.935094
0.308196
-1.24329
-0.0095178
-1.4166
1.14089
-0.205876
1.22231
0.758215
1.07597
0.923967
-0.631979
-1.2949
1.07286
0.171534
-1.1066
-0.878627
-1.85197
0.745364
-1.63693
-0.194508
1.15816
-0.735345
-0.422818
-0.102358
0.802164
-0.699805
-0.952303
0.0842713
0.886435
0.116416
-1.05991
-1.32131
0.420032
-0.9132
0.493168
0.823257
-0.611726
-1.52493
-0.806112
0.332827
0.352052
0.715785
-0.776387
0.0606017
0.809141
-0.695665
0.048617
-0.0394763
0.0385392
-0.0453555
-0.535124
1.02829
-1.23362
0.698492
-0.00123204
0.00123204
0.865974
-0.879714
0.0137395
0.13063
0.000766778
-0.000766775
0.000766772
-1.09985
1.09985
0.862138
0.802865
-0.672236
0.756628
-1.25263
0.495999
-0.720131
0.570186
0.149945
-0.00967738
0.396162
0.457599
-0.566103
-0.237624
-1.55051
1.49303
0.0574785
0.208268
-1.09094
1.53239
0.946404
1.38775
-1.46961
0.0818578
0.00154722
-0.00154722
0.000780444
-1.0043
0.89062
-0.858619
1.15893
-0.300313
0.817521
1.4188
1.2951
-0.712929
-0.638473
-0.373357
0.656631
2.35169
-0.980649
-0.145725
-0.923385
0.230925
-0.646196
0.415271
0.0612613
0.800877
0.285738
-0.875137
1.04338
-0.0621082
-1.18547
0.945332
-0.246841
-0.130804
0.793881
-0.112949
1.23707
-1.35876
1.35891
-0.000152472
-1.04191
-0.504215
-1.533
-0.767165
0.383458
0.0478909
0.627661
-0.675551
1.20971
-0.153604
-0.149048
1.70608
-0.483968
-1.22211
-0.145885
0.758118
-0.406067
-0.627723
-0.225848
-1.40187
1.33849
1.96491
0.0040168
-0.00307756
-0.000939237
0.00149002
-0.00674449
0.00525446
-0.0281611
0.0282258
-6.46341e-05
0.0411476
-0.0200365
-0.0211111
-0.0047097
-0.00485841
0.00956811
-0.00970906
0.00499936
-0.0560372
0.0110309
0.0450063
-0.018352
-0.104704
0.123056
-0.00550691
-0.00548978
0.0109967
-0.0648447
0.0491815
0.0156632
-0.112399
0.0729766
0.0394226
0.0617438
-0.00921696
-0.0525266
0.00622242
-0.00528474
-0.000937674
-0.498664
0.324296
0.174368
0.019118
0.00161482
-0.0207328
0.00681415
-0.00485667
-0.00195748
-0.0011742
0.00117419
0.00395784
-0.00946476
0.00730594
-0.00478102
-0.00252492
0.0204725
-0.0431826
0.0227101
-0.00749574
0.00561257
0.00188317
0.00369648
0.00311767
-0.0506719
0.00439238
0.0462796
0.0437478
-0.0451355
0.00138773
0.0113007
0.0134432
-0.0247439
0.0368794
-0.0255787
-0.0550887
0.0108641
0.0442246
-0.0384748
0.0564344
-0.0179596
0.00140501
-0.00140502
-0.00609528
-0.00692633
0.0130216
-0.0109537
-0.0541224
0.0594063
-0.00528322
-0.00810058
-0.0573046
0.0654055
-0.0368086
0.00830015
0.0285085
0.00358626
0.0159434
-0.0195296
-0.0033719
-0.0166027
0.0199746
0.00269973
-0.00269973
0.0137007
-0.0384941
0.0247933
0.00463505
0.00671111
-0.0113462
0.0103243
-0.00180714
-0.00851714
-0.010615
0.0855958
-0.0749808
0.0654204
-0.0760354
0.0515261
0.0223723
-0.0738984
0.0670741
-0.015548
0.00724175
-0.0030251
-0.00421666
-0.00404504
0.0463886
-0.0423435
0.0613754
0.0092955
0.00982249
0.019109
0.00607284
-0.0244298
0.018357
-0.0198029
0.0195603
0.000242631
-0.00785627
-0.0119467
0.0566013
-0.0542921
-0.00230914
-0.047106
-0.00749952
0.0546055
-0.00691755
0.00321934
0.00369821
0.00891192
-0.00668439
-0.00222752
-0.0109676
0.0346187
-0.0236511
-0.0514932
0.0433928
0.0102506
-0.0107294
0.00375847
-0.00668729
0.00292883
-0.0172001
-0.0378887
-0.00100437
-0.00451489
0.00551926
-0.0216745
0.0138183
0.0119356
0.00334006
-0.0152757
0.00601581
-0.0129421
-0.627497
0.301945
-0.0224554
0.0114878
-0.00284553
-0.0012705
0.00411602
0.0225399
-0.022104
-0.000435873
0.00848477
0.0140551
-0.0113913
-0.0110641
0.0043474
-0.0157387
0.00702602
-0.0180902
0.00579257
-0.0076008
0.00180824
-0.00223105
-0.00375851
0.00598957
0.000514523
0.00969208
-0.0102066
0.0480218
-0.0371577
0.00954704
-0.0498788
0.0270208
0.0228581
-0.0152686
0.0192552
-0.00398658
-0.00327281
0.0162944
0.011401
-0.00912357
-0.0022774
0.0449747
-0.0354277
0.0466975
-0.00172276
-0.0465441
0.0111165
0.0580532
-0.675646
0.617593
0.00512495
0.00378697
-0.00317468
-0.00374287
0.0635583
-0.341581
0.278022
0.171909
-0.502423
0.330514
-0.000414082
-0.00606877
0.00648285
-0.00315629
0.00618133
-0.00302504
0.025383
-0.0168982
-0.0099984
0.0297509
-0.0197525
-0.0283143
0.0110102
0.017304
-0.0182742
0.0287503
-0.0104762
-0.0465884
0.0397606
-0.00629543
-0.00465825
-0.0172521
0.0242781
-0.00620141
0.00769144
-0.00519955
0.00681437
0.0145058
-0.0346403
0.0490763
-0.014436
-0.0549636
0.0203234
-0.0022974
0.0204166
-0.0181192
0.0062346
-0.0192134
0.0129788
-0.0622788
-0.0501204
0.262563
-0.58538
0.322818
0.000520267
0.0533477
-0.0538679
0.0571216
0.0441309
-0.372665
-0.125999
-0.0119286
-0.00880418
0.0077117
0.0114064
-0.0191181
-0.143117
0.203076
-0.059959
-0.00113132
0.00113132
0.0878032
-0.0332797
-0.0545234
-0.00560605
0.00853773
-0.00293168
-0.0504017
-0.0264817
0.0768835
0.00863895
0.00586686
0.0116561
-0.0066716
-0.00498452
0.00672208
0.0128382
0.0129567
0.002646
0.0101922
0.18571
0.11869
-0.3044
0.0199077
0.00614285
-0.0260506
0.0019259
-0.0138545
0.464534
0.124565
-0.589099
-0.748812
-0.133442
-0.00427304
-0.0217775
0.0369379
-0.0038869
0.0326649
0.0277172
-0.0223639
-0.00535326
0.0128742
-0.0391089
-0.00771479
0.00141936
-0.00865163
0.000936835
-0.387216
0.483109
-0.0958939
-0.507137
0.497456
0.0229179
0.0335165
0.0402219
0.0528116
0.0128466
-0.0656581
-0.0504973
0.0400211
-0.00142096
0.0410267
-0.00100557
-0.00628263
0.0475168
-0.0412342
-0.0533886
-0.00590219
0.00426112
0.00164107
-0.07499
0.0245883
-0.00670834
0.0504561
0.0106668
0.00709918
-0.017766
-0.00836944
-0.0137346
-0.00663541
-0.635764
0.49708
0.138685
-0.0356718
0.026186
0.00948586
0.00120752
-0.0236927
0.241897
0.236402
-0.478299
0.340857
-0.0989597
0.553495
-0.00813038
-0.000993192
0.00160901
0.00979737
-0.00652137
0.0308949
-0.0322749
0.0339498
-0.0288111
-0.061086
0.328655
-0.155052
-0.173603
0.00490577
0.00492732
-0.00983308
-0.005974
0.00892426
-0.00295025
-0.00631367
-0.0137868
0.0201005
0.00948228
-0.0157959
-0.0117692
0.00524784
0.00109546
-0.0128647
0.0113626
-0.00611476
0.0292763
0.0226784
-0.0519547
0.0321966
-0.00151793
-0.0306787
-0.0114481
-0.0496379
0.0375182
0.00102097
0.0260702
0.00895966
-0.00140154
-0.00755812
0.00266429
0.00629537
-0.0233506
-0.0204076
0.0437583
0.0138648
0.0177714
-0.0316362
-0.00263614
0.00348973
-0.00664602
-0.00590984
-0.044762
0.0437146
-0.0232421
0.00572903
-0.00815349
0.00242446
-0.00773017
0.00632646
0.00140371
-0.0262966
0.0121859
-0.00636827
0.0324384
0.0147275
-0.0170267
0.00229914
0.0207433
-0.0193296
0.92412
0.210496
0.592369
-0.441421
-0.186302
-0.0101803
-0.00684639
0.00525297
-0.0154333
0.00861917
-0.0154656
-0.0497513
0.0111359
0.0386154
0.000569838
-0.0569929
0.056423
0.00865228
0.019539
-0.0281913
-0.0220955
-0.00954065
0.0393822
0.00813461
-0.00998015
-0.0351554
0.029402
0.00738345
-0.00182776
-0.00555569
0.00616054
0.00122291
-0.00711946
0.00529171
0.0198773
-0.0162911
-0.530751
0.591352
-0.512626
0.594121
-0.0814946
-0.0042997
-0.00731418
0.0116139
0.025948
-0.0857055
0.0323464
-0.0186457
0.00418524
0.0280518
0.0122354
0.00850788
0.0173706
-0.00513518
-0.0147867
0.0232946
0.0803216
-0.0702382
-0.0100831
0.00331833
-0.0197261
0.0164078
0.0208652
-0.00799103
0.0241836
0.324911
-0.338213
0.0133027
0.00217509
0.00948104
-0.00815181
-0.000499818
-0.00597673
0.00898122
0.497734
0.946364
-1.4441
-0.000751762
0.00075176
-0.569634
-0.0676378
0.637271
-0.819225
1.31696
-0.00132095
8.89127e-05
0.467517
-0.409464
-1.06475
1.06475
0.130666
0.945302
-0.885564
0.654056
0.231508
-0.407559
-0.478005
1.23855
-0.261016
-0.977532
0.115995
-0.0595728
-0.0564219
-0.528284
-0.10748
-0.103284
-0.425
-0.833764
0.930138
0.185151
0.313196
-0.498347
0.37086
0.0435323
0.6488
-0.692332
0.483284
-0.439751
0.0709743
-0.0181625
0.602066
-0.621396
0.536911
0.0651548
0.136765
-0.110817
0.484283
-0.236024
-0.248258
0.196576
0.287707
0.00365147
-0.00396372
0.000312244
-1.01624
-0.144963
0.576587
-0.431624
-0.000511661
0.000511658
0.400007
-0.944585
0.544578
-0.554198
0.602089
-0.308493
0.594232
0.0813925
0.0553721
-0.607962
-0.218364
0.826326
-0.0610761
-0.022629
0.0837054
0.0098985
-0.156912
0.00864259
0.148269
0.644378
-0.700268
0.0923055
-0.328135
-0.372133
-0.691856
0.363721
-0.91817
0.0463587
-0.997676
0.750835
-0.163564
-0.439967
-0.235679
-0.638529
0.412681
-0.130041
0.353068
-0.89615
0.505518
-0.609875
-0.286276
0.000537345
-0.000537348
0.00112486
-0.00387963
0.00275476
1.03572
-0.149289
-0.0111532
-0.670858
0.682012
0.944386
-0.617954
-0.326432
0.334511
0.219291
-0.700489
0.660932
-0.0882156
-0.572716
0.880903
0.738433
-0.314378
0.714384
0.03064
0.0747709
0.0174664
-0.186773
0.227633
-0.0408604
0.219556
0.424822
-1.1527
1.1527
-0.489844
-0.202012
-0.755755
-0.273418
0.836171
-0.330654
0.0804162
0.273248
0.194269
-0.00393507
0.00227692
0.00165814
0.792834
-0.530271
0.30299
-0.0251393
-0.0892243
-0.00859754
0.00262081
0.811949
-0.956911
-0.455249
2.01306
1.03778
-0.541807
0.359522
0.182285
-0.26856
-0.325659
-0.332422
0.658081
0.0367048
0.247195
-1.49982
0.860801
-0.613606
-0.0832227
-0.255541
0.338764
-0.269995
1.20155
-0.0590035
0.0418034
-0.0366311
-0.622578
-0.211187
1.07446
0.248862
-0.579222
0.33036
-0.830307
-0.581444
-0.80114
0.255027
-1.05617
-0.00983267
-0.0131602
0.0539139
0.0635146
-0.943228
0.712314
-0.000365416
0.000902757
1.22231
-0.682589
1.9049
0.225094
1.03845
-0.813352
0.935162
-0.925417
-0.0908269
-0.290699
-0.288523
0.643553
-0.018974
0.00418729
-0.0166748
-0.0277714
0.0110966
0.110768
-0.647679
0.723445
-0.0757651
0.298445
-0.605709
0.984768
-0.379058
-0.0291224
0.782827
1.04478
-1.19067
0.00629529
-0.631071
0.266806
-0.142351
-0.00358379
0.0268784
0.0433568
0.184276
-0.0674597
1.27165
0.21108
0.84883
0.044636
-0.0521355
-0.00965606
0.0103301
-0.0995544
-0.0753755
-0.142835
-0.0226771
-0.0621535
0.418998
-0.494763
0.510422
-0.0914242
0.349288
0.161134
0.421853
-1.34169
0.158206
0.0400788
-0.487797
-0.158399
-0.447718
0.577053
0.0405407
-0.447305
0.288906
-0.0985435
-0.348761
-0.354084
1.13963
0.130661
0.826476
-0.695815
0.565459
-0.000523254
-0.000228511
0.00477632
-0.781519
-0.457222
-0.590664
0.0225185
1.39449
0.711903
-0.757708
-0.00783852
0.00940703
-0.00156851
0.00287198
-0.0107105
0.00133095
0.00471151
-0.00604247
-0.0055315
-0.00705952
0.012591
-0.15083
0.264947
-0.114117
0.0050758
-0.00426581
-0.000809991
0.00746466
-0.00188923
-0.00557543
-0.00630388
0.00392407
0.00237981
-0.00446127
0.00393571
0.000525552
-0.0142794
0.0142876
-8.14937e-06
0.0114995
-0.00236007
-0.00913948
0.0027096
0.00878995
-0.0165684
0.00487352
0.0116949
0.00693298
-0.00267853
-0.00425445
0.00274375
0.00418923
-0.0133373
0.00494365
0.00839366
0.00543134
-0.0187687
-0.00355735
-0.00436014
0.00791749
-0.00861188
-0.00159542
0.0102073
0.00198407
0.00804083
-0.0100249
0.00431474
0.00221698
-0.00653172
0.00469758
-0.0078209
0.00312333
0.00856814
-0.00957455
0.00100641
0.00179115
0.00677699
-0.00769181
0.00503612
0.00265569
-0.00486309
-0.00282872
0.00248672
-0.00715543
0.00466871
-0.00159664
0.00997452
-0.00837787
-0.0023031
0.00412915
-0.00182605
-0.00330496
0.00198252
0.00132244
-0.00342662
-0.00288917
0.00631578
0.00488321
-0.00830984
-0.00287405
0.0101486
-0.00727459
-0.0075453
0.00224112
0.00530418
-0.00166093
-0.00588437
0.00293528
-0.00691823
0.00398294
0.0020142
0.00425216
-0.00626635
0.00757055
-0.0077024
0.000131849
0.00327714
-0.00278362
-0.000493524
0.00369457
0.00318453
-0.0068791
0.0036817
-0.0048777
0.00119601
-0.00648506
0.00292771
0.0074325
0.000516741
-0.00794924
0.00418493
0.00324757
0.00349916
0.00766811
-0.0111673
0.00855073
-0.00998135
0.00143062
0.0104141
-0.000973685
-0.00944041
-0.00909172
0.000482507
0.00860923
-0.00820897
-0.000798845
0.00900782
-0.00440329
0.00689001
0.00805109
-0.0117304
0.0036793
-0.013204
-0.0010754
-0.00718226
-0.00602175
-0.0246795
0.0198393
0.00484029
-0.00683142
-0.333782
0.340614
-0.00896796
0.00455596
0.004412
-0.00598135
0.00743023
-0.00144887
0.185412
-0.192244
-0.00469636
-0.00539272
0.0100891
-0.00966046
0.00160922
0.00805124
-0.0025315
-0.00712896
0.0198084
-0.00587091
-0.0139375
-0.00719676
0.0270051
0.00802811
-0.0023009
-0.00572721
0.00306189
0.00496622
-0.00715225
0.0113119
-0.00415969
0.00552425
-0.00811748
0.00259324
0.00850107
-0.00575732
-0.00115421
0.0118204
-0.0106662
0.0047475
-0.006133
0.0013855
0.00954718
-0.0127872
0.00323997
0.00873973
-0.00873972
0.00213588
0.0156849
-0.0178208
-0.010301
0.00555252
0.00474848
-0.00925641
0.00330219
0.00595422
0.00849423
-0.00849423
0.00815569
-0.00815569
0.000626162
0.00780068
-0.00842684
0.0322946
-0.0141746
-0.0181199
-0.00407316
-0.00616966
0.0102428
0.00635798
-0.00580953
-0.00054845
-0.0221422
0.00584403
0.0162982
0.0108209
-0.0329631
0.00362876
0.00475767
-0.00838643
0.00459524
0.00162717
-0.00258898
-0.00453048
-0.00349725
0.0154328
-0.00420362
-0.0054174
0.00962102
0.00539429
-0.00325207
-0.00214223
-0.00546257
-0.00194494
0.00740751
-0.011625
0.00466077
0.00696425
-0.0112607
0.0074926
0.00376806
-0.00437462
0.00707206
-0.00269744
0.000339561
-0.00471418
0.0125257
-0.00990123
-0.00262448
0.00999801
0.00149403
-0.011492
-0.00874504
-0.00117661
0.00992166
-0.00513544
-0.00360961
-0.00167683
-0.00706807
0.0087449
0.00216631
-0.00692292
0.00475661
-0.000423561
0.00596667
-0.0055431
-0.00095143
0.0058566
-0.00490516
-0.00397344
-0.00417796
0.0081514
0.00911175
-0.00467859
-0.00443316
-0.0120589
-0.00259229
0.0146512
0.0125186
-0.00663804
-0.00588053
0.00537049
0.00648382
-0.0118543
-0.00686436
0.00690067
-3.63134e-05
-0.00617056
0.0068184
-0.000647842
-0.00763384
0.0118664
-0.00423254
0.00721471
-0.00014981
-0.0070649
0.00815395
0.000249629
-0.00840358
0.00964508
-0.00282529
-0.00681979
0.00173835
-0.00698476
0.00524641
0.0019825
-0.00700026
0.00501776
0.00567899
-0.00164638
0.00660473
-0.00495835
-0.00796615
0.000876849
0.0070893
-0.0184015
0.0257464
-0.00734492
0.00181751
-0.00537894
0.00356143
0.00320562
0.00489023
-0.00809584
-0.00683215
-0.00403035
0.0108625
0.00307382
-0.00990596
0.00598866
-0.000411308
-0.00557735
0.00811923
-0.00213057
0.0203821
0.0119125
0.0049388
0.00417169
-0.00911049
0.0107673
-0.0104141
-0.000353259
0.0100076
-0.0100076
0.00593768
0.00355994
-0.00949762
-0.00555729
-0.00200655
0.00756385
0.0145935
0.0244511
-0.0390446
-0.00290367
0.00833931
-0.00543564
0.0014726
0.00643739
-0.00790999
0.0159974
-0.0135942
-0.00240319
-0.0044587
0.00119173
0.00326697
0.00800114
0.00283986
-0.010841
-0.00303225
0.00654102
-0.00350876
0.00718059
0.00510228
-0.0122829
0.00110058
0.00627384
-0.00737442
-0.00294846
-0.00632701
0.00927547
0.000536493
0.00680282
-0.00733931
-0.0274451
0.0451148
-0.0176697
0.0345277
-0.0619729
-0.00870642
0.00163492
0.0070715
-0.00464694
-0.00405948
-0.00921545
-0.00218954
0.011405
0.00816906
-0.00457995
-0.00358911
-0.0116353
0.00661528
0.00502005
-0.00716135
0.0107482
-0.00358687
0.00156699
-0.00723261
0.00566561
-0.00308976
-0.00301621
0.00610597
-0.00849891
0.00139512
0.00710379
0.00146732
0.00193929
-0.00340661
-0.00299916
-0.0014621
-0.00224895
-0.00613647
0.00838542
0.00977569
-0.00873809
-0.0010376
0.00949015
-0.011167
0.0110001
-0.00833581
0.000520002
0.0043871
-0.0049071
0.00606632
-0.00554632
-0.0260928
0.0339957
-0.00790283
-0.0205066
-0.00558625
0.00229007
0.0058407
-0.00813077
-0.00915306
0.00923148
-7.84135e-05
-0.00536718
-0.00378588
0.0102793
-0.00713644
-0.00314283
0.00658735
-0.0114504
0.000971715
-0.00820427
0.00723256
-0.00404482
0.00754398
0.00625688
-0.0103017
-0.00836354
-0.00473212
0.0130957
-0.00723959
-0.00402334
0.0112629
-0.0125867
0.00551858
-0.0078138
0.00384037
0.00143053
0.00407905
-0.00550958
0.0050856
-0.0055902
0.000504602
0.00295512
0.00213048
-0.00111752
0.00816604
-0.00704853
0.0056388
-0.00729973
0.0280304
-0.00169897
-0.0263314
0.0432564
-0.015226
-0.0325791
-0.00591496
0.0101796
-0.00887455
-0.00130503
0.00723112
0.00794172
-0.00570099
-0.00224073
0.00163784
-0.0101325
0.00443151
0.00168376
-0.0169523
0.00569812
0.00332866
-0.00902678
-0.00794689
0.00938454
-0.00143764
-0.00617779
-0.00149514
0.00767293
0.00333089
0.00681912
-0.01015
0.0065917
-0.00533308
-0.00125862
0.00357878
0.0022534
-0.00583218
-0.021237
-0.0272942
0.0485312
0.00698632
-0.00988998
-0.00557775
0.0112472
-0.00566945
-0.00828002
0.00182762
0.00645239
-0.000338
-0.00952431
0.00986231
0.0101355
0.00102111
-0.0111566
0.00383586
0.00345693
-0.00729279
0.0078969
-0.0104854
0.00258846
0.0063895
0.000734808
-0.00712431
0.13035
-0.0480807
-0.0822696
0.0001162
0.00952888
0.00827015
0.0109146
0.00478026
-0.0156949
-0.00539105
0.0114976
-0.0061065
0.00200635
0.00594869
-0.00795504
-0.00793704
0.00335891
0.00457814
-0.000916888
-0.00594747
-0.00866023
0.0185478
-0.00988759
-0.00340007
-0.00511472
0.00851479
-0.00200581
0.0103199
-0.00831404
0.00471517
0.00800378
-0.012719
0.00837603
-0.00947746
0.00110142
0.0106893
-0.00797965
0.0101113
-0.00699846
-0.00311286
0.00273121
-0.00973417
0.00700296
-0.00441092
0.00714214
0.000577433
0.00670451
-0.00728195
0.0105762
-0.00586104
0.00530064
0.00438432
-0.00968495
0.00587544
0.00250059
-0.00381375
0.00968919
0.0105044
-0.00675965
0.00982154
0.00722543
-0.00429015
-0.00170626
0.00888685
-0.0107038
0.00782975
-0.0214017
0.00522726
0.0161745
-0.0136666
-0.00773512
-0.0109126
0.00817629
0.00273631
-0.0100292
-0.00088338
0.000167893
0.00533496
-0.00550286
0.00208229
-0.00677577
0.00469348
0.0331448
0.0222122
-0.0553569
-0.0335331
-0.0189935
-0.00038829
0.00252897
0.003197
-0.00572597
0.00461748
0.000458317
-0.00397891
0.0125773
-0.00859838
0.00159711
-0.00737628
0.00577916
-0.010943
0.00702965
0.00391333
-0.00676653
0.00240852
0.004358
-0.00581235
0.00717967
-0.00136732
0.00438752
0.0134358
-0.0178233
0.00981886
0.00564021
0.0077956
-0.00610863
0.0108729
-0.00476429
-0.00777296
-0.00330362
0.0110766
-0.00433791
-0.0044706
0.00880851
-0.00208581
-0.00647875
0.00856455
0.00193827
-0.00883945
0.00690118
0.00773928
-0.0105646
0.0166348
-0.00518094
-0.0114539
0.00977128
0.00496779
-0.0147391
0.00915023
-0.034685
0.0255348
0.00120906
-0.00974854
0.00853948
-0.0054051
0.0114944
-0.00608931
0.0092764
-0.001031
-0.0082454
-0.00119938
-0.00843847
0.00963785
0.00910894
-0.00772203
-0.0013869
0.000899978
0.000937612
0.00280257
-0.00374018
0.0135454
-0.00377416
0.00639279
0.00715265
0.0128607
0.00172851
-0.00682266
0.00509415
-0.00622448
0.00695825
-0.000733772
-0.00200863
-0.00421585
-0.000467935
-0.00879196
0.0092599
0.00937976
-0.00441197
-0.001703
-0.0102443
0.0119473
-0.0104336
0.00873055
-0.0051
0.00951376
-0.00441377
-0.00680522
-0.00297076
0.00977598
-0.0173669
0.0119884
0.00537851
0.0110926
-0.0143936
0.00330106
-0.0394523
-0.0165848
0.0750019
0.0553483
0.0113154
-0.00279815
-0.00851721
0.0186824
-0.0126096
0.00927004
0.00927419
-0.0185442
0.0103478
-0.00805776
0.00213127
0.00821656
-0.00671392
0.00884519
-0.00451122
-0.00732672
0.0118379
-0.00345614
-0.00305264
0.00650878
-0.037317
0.0206504
0.0166666
0.0321144
-0.0291712
-0.00294319
-0.00184674
-0.00205612
0.00390287
-0.0357057
0.0233072
0.0123985
0.00619672
-0.0268145
0.0206178
0.000209979
-0.0112524
0.0110425
0.00165058
-0.012083
0.0104324
-0.0135948
0.00641686
0.00717794
-0.00410595
0.00738462
-0.00327867
-0.00541414
0.0107846
0.00710443
-0.00210061
0.00655872
-0.00445811
0.00243147
0.00360878
-0.00604026
-0.00732262
-0.00187977
0.00920239
0.00355073
-0.00638706
0.00283633
-0.00191097
0.0124237
-0.0105127
0.00694789
0.00737327
-0.0143212
-0.00212849
-0.00812389
0.0102524
0.00541074
-0.0096495
0.00423876
0.00525495
-0.00458307
-0.000671876
-0.00191097
-0.00477342
0.00334398
-0.00586721
0.00544364
-0.00804775
0.00757982
-0.00813724
0.000903659
0.00723358
-0.00857075
0.00912422
-0.00055347
-0.00663248
-0.00384209
-0.00874456
-0.0110817
-0.00276838
-0.0074759
-0.0104022
-0.00127014
-0.00620577
0.00525189
-0.00690286
0.00165097
0.00733418
0.000690111
-0.00495592
0.00867898
-0.00892698
0.000248001
0.00205012
0.00662886
-0.0114547
0.00322934
0.00822535
-0.00583319
-0.00522509
0.0110583
-0.0208512
0.0120825
0.00876868
-0.0136699
-0.00718132
-0.00412164
0.0106907
-0.00656907
0.00493479
0.00664167
-0.0115765
0.00164887
-0.00862469
0.00697582
0.0265199
0.0080989
0.0327166
0.142991
-0.238885
-0.190791
-0.0019293
-0.00644162
0.00837092
-0.00587654
0.00394724
-0.00597793
0.0118744
-0.00589648
-0.00183635
0.0037094
-0.00187305
0.0173335
-0.0139943
-0.00333921
0.00081451
-0.00567118
-0.00898872
-0.0341075
0.0430963
0.0326984
-0.0416871
0.0111412
-0.0196273
0.00848605
0.00517266
0.00585059
-0.0110233
0.0192462
-0.0119452
-0.00730106
-0.0105152
0.0172431
-0.0067279
-0.0122029
0.0267649
-0.0145621
0.0160229
0.0321736
-0.00540871
0.00385832
0.00412842
-0.00798674
0.0188463
0.0223014
0.0394311
-0.0211733
-0.0182578
0.0092208
-0.0112814
0.00206062
-0.00871624
0.00972183
-0.00100559
-0.0242602
-0.0025543
-0.0127724
-0.019302
0.0167477
0.0168699
-0.0138567
-0.00301324
-0.029131
-0.0347812
0.0639122
-0.0633345
0.0362601
0.0270745
0.016343
0.000328294
-0.0166713
-0.00750595
0.00406436
0.0034416
0.00293437
-0.0048937
0.00195933
0.00299655
0.00241616
-0.00541272
0.00593093
0.00548914
-0.00135071
-0.00413843
0.00343734
-0.00438877
-0.00332918
0.00389367
-0.00738578
0.0034921
0.00711301
-0.0100937
0.00886966
0.00122402
-0.00623821
-0.00385548
-0.00253816
-0.00646532
0.00900349
0.000718921
0.00830532
-0.00902424
0.00940875
-0.00868983
-0.00176018
0.0112503
0.00923991
0.000159959
0.00497758
-0.00513754
-0.00433271
0.00449268
0.0117122
0.00304337
-0.0147556
-0.00451547
-0.013886
-0.0108426
-0.0019986
-0.00751631
0.00951491
0.00573032
-0.00772892
-0.00123056
-0.00628575
0.00139122
-0.010558
0.00916683
0.00419603
0.00567804
-0.00987408
0.00997862
-0.00456788
-0.0038861
0.004122
-0.0002359
0.00977021
-0.00424983
-0.00552038
-0.00749418
0.00749418
-0.0162242
-0.0216895
0.0379137
-0.00754869
0.00698226
0.000566429
-0.00400845
-0.00186809
0.0261604
0.00330492
-0.0294653
0.0130994
0.013061
-0.0221241
0.025429
0.00619358
-0.0041097
-0.00208388
-0.00169498
-0.00515038
0.00684535
0.0044986
-0.00776562
-0.0038594
0.0108187
0.00605126
-0.000993358
0.011812
-0.00918244
0.0152337
0.0106781
0.00062146
-0.0112996
0.0052648
0.00541331
-0.0136795
0.014301
-0.00539302
0.00699013
0.00549598
0.00536565
-0.0108616
-0.00576468
-0.00377435
0.00947247
-0.00178702
0.00431182
-0.00252481
0.00291586
-0.00671962
0.00380376
0.0157318
0.00133567
-0.0170674
0.0036279
-0.0112614
0.00763345
-0.00333129
-0.00318621
0.00651749
-0.00609546
0.00594343
0.000152024
-0.0490019
0.0673067
-0.0183048
0.00577807
-0.00985123
0.00918881
-0.00286615
-0.00632267
0.00141586
0.0519008
-0.0428005
-0.00910025
0.0037956
0.00234205
-0.00613765
0.0053737
-0.0015781
0.00639205
-0.00405
0.00850344
-0.02217
-0.0448753
0.0260964
0.0187789
0.0380043
-0.0151818
-0.0228225
-0.0208014
0.0235052
-0.00270374
0.0201546
-0.000359157
-0.0197954
0.00886696
0.0054206
0.0105175
-0.00708563
0.0125062
-0.0273177
0.0124075
0.0149102
0.00860136
-0.00943029
0.000828934
0.00336477
0.00523659
-0.00645017
-0.00389092
0.0103411
0.00549712
0.00580104
-0.00961479
-0.00223689
-0.0056732
0.00791009
-0.00953301
0.0048395
0.0046935
-0.0117699
0.00274405
-0.0106557
0.00791168
-0.00943346
0.00712304
0.00231043
-0.00668941
0.00399338
-0.00665858
0.0026652
0.00251446
-0.0102119
0.00769747
-0.00349453
0.00349453
-0.00114325
0.00775124
-0.00660799
0.00241877
0.00584241
-0.00826119
0.0189234
0.0205076
0.00161479
0.00866422
-0.010279
-0.0033422
0.0033422
0.00387002
0.00343592
-0.002187
0.00605703
-0.0089744
0.0103656
0.00094765
-0.00606838
0.00512073
0.00605589
-0.0012658
-0.00479009
0.00700354
0.00372432
0.00326164
-0.00698596
-0.00330445
0.0069022
-0.00359775
-0.00559123
0.00571709
-0.000125859
0.00604173
-9.67385e-05
-0.005945
-0.00635395
-0.00508148
0.0114354
-0.0103843
0.00174648
0.00476088
-0.00650737
-0.00958509
0.0223596
-0.0127746
0.00147283
0.00674147
-0.0082143
0.00795963
-0.0064868
0.0025888
-0.0025888
0.00782095
0.00307248
-0.0108934
0.00359527
0.00422568
-0.0045359
0.00760837
0.00999659
-0.00794648
0.00213116
0.00800433
0.0101822
0.00766633
0.00988405
-0.00632966
-0.00355439
0.000685744
-0.00878969
0.00810394
0.00841573
-0.00772999
-0.00141652
0.00770334
-0.00628681
0.00492417
-0.00634069
0.00492675
0.00104364
-0.00597039
0.0183909
-0.0158681
-0.00252275
-0.00787563
0.0197596
-0.011884
0.0282864
-0.010826
-0.0174605
0.0263109
0.00197558
0.0213476
-0.00872866
0.00198417
-0.000107965
0.00733813
-0.00723017
0.0065279
-0.006471
-5.6896e-05
0.0110821
-0.00774199
0.00237148
-0.010735
0.0134535
0.00247262
-0.00247262
0.00461214
-0.00551549
0.00090334
-0.00678216
0.00894847
0.00834101
-0.0108725
0.0227488
-0.00815525
0.00671657
-0.024177
-0.0323323
0.00920987
-0.00261783
-0.00659204
0.00249595
-0.00898977
-0.000294617
0.00928439
-0.00957297
0.00975258
-0.000179602
0.031516
0.00200049
-0.0052842
0.0052842
-0.00575175
0.00609131
-0.0065844
0.00493803
-0.0327596
-0.00155549
0.0343151
-0.0132331
-0.0195264
0.0340482
-0.0356037
0.00594
-0.00594003
-0.0184431
-0.00800722
0.0264504
-0.025244
0.0166314
0.00861255
0.00173974
-0.00173973
0.00349038
-0.0034904
0.00582351
-0.000940306
0.00340312
0.0026626
-0.00606573
0.00483366
0.00448012
0.00558803
0.00201425
-0.00760228
0.00164029
0.00576526
-0.00740555
0.0012102
0.00695813
-0.00816833
-0.0387874
0.0203442
0.00380652
0.00341714
-0.00722365
0.00596185
-0.00711832
0.00115648
-0.00391554
0.00641954
-0.00250399
0.0020463
0.00711557
-0.00604097
-0.00107459
0.00334187
0.00377369
-0.00668264
0.000241013
-0.00243884
0.00243883
-0.0230662
0.041011
-0.0179448
-0.0340174
0.0103195
0.0236979
-0.0300139
-0.00400349
0.0361974
-0.0258779
0.00654353
-0.00188277
0.00108096
-0.00757315
-0.00417005
0.0117432
-0.0115521
0.00868808
-0.0128581
0.0208681
-0.0149733
-0.00589473
-0.000806492
-0.0321773
0.017204
0.00737597
-0.00379719
-0.00254632
0.00254632
0.00828614
-0.0153718
-0.0100248
-0.00263097
0.0126558
0.0263862
-0.0329408
0.00655457
-0.0104466
0.0368328
-0.0025841
0.00879362
-0.00620951
-0.0100614
0.00747725
-0.00356601
0.00705201
-0.00348599
0.00365002
-0.00586719
0.00221718
-0.0121928
0.0124028
-0.00761088
0.00156991
-0.00268671
-0.006929
0.00125296
0.00795769
-0.00921065
0.00749595
-0.00624299
-0.0156048
0.0174103
-0.00180546
0.00671636
-0.015602
0.00888563
0.00726656
-0.0101327
-0.00237322
0.00237322
0.00122002
-0.00122002
0.0167616
-0.0136403
-0.00312131
0.00736853
-0.00568329
-0.00168523
0.00816725
-0.000798721
-0.00792414
0.00175448
-0.00374102
-0.00418311
-0.00717248
0.00384119
-0.00421008
-0.00755982
-0.00957726
-4.31819e-05
-0.00450122
0.00454441
-0.0372956
0.0163048
0.0209908
-0.0272194
-0.00848625
0.000678549
-0.0064909
0.00652028
-0.000478545
-0.00356525
-0.00550068
0.00906593
0.00371065
0.0102672
-0.0139779
0.00759776
0.00317917
-0.0107769
0.00380497
-0.00613906
0.00233409
-0.000822018
0.00462699
-0.00297735
0.0076124
0.00734693
-0.000562036
0.0148264
-0.0142644
-0.0161668
-0.00193803
0.00193803
0.000238337
-0.00217637
-0.0132016
0.00802063
-0.00541613
0.0065896
-0.00117347
-0.000186144
-0.00522999
0.00184139
-0.00184139
0.000190576
-0.00561502
0.00542444
-0.00438274
0.00691171
0.00689335
-0.00730264
0.00040929
-0.027406
0.0319264
-0.00452041