/*--------------------------------*- C++ -*----------------------------------*\
  =========                 |
  \\      /  F ield         | OpenFOAM: The Open Source CFD Toolbox
   \\    /   O peration     | Website:  https://openfoam.org
    \\  /    A nd           | Version:  6
     \\/     M anipulation  |
\*---------------------------------------------------------------------------*/
FoamFile
{
    version     2.0;
    format      ascii;
    class       volVectorField;
    location    "1300";
    object      U;
}
// * * * * * * * * * * * * * * * * * * * * * * * * * * * * * * * * * * * * * //

dimensions      [0 1 -1 0 0 0 0];

internalField   nonuniform List<vector> 
29874
(
(7.52793 0.0629022 1.07466e-16)
(5.38978 0.0282376 -9.9136e-17)
(5.4239 -0.121064 1.9939e-16)
(7.10962 -0.080182 -1.17888e-16)
(7.80833 -0.118232 0)
(7.42717 0.00460287 -9.68963e-17)
(4.77766 0.0948778 5.99347e-18)
(7.12411 0.0171921 2.20766e-18)
(7.44877 -0.00421719 -1.34275e-17)
(7.19173 0.211781 -1.62507e-17)
(7.20283 -0.115576 0)
(7.23343 0.103383 -3.55339e-17)
(4.44622 -0.0538747 9.21478e-17)
(8.26906 0.0490326 0)
(6.72514 0.203401 1.06174e-16)
(6.60756 0.137524 0)
(4.26176 -0.0200715 0)
(7.80284 0.21245 -1.38783e-16)
(4.9617 -0.0407576 -1.43956e-16)
(7.99513 -0.0695848 -3.26844e-18)
(7.1189 -0.0228878 3.48473e-17)
(7.07109 -0.0257475 9.17168e-18)
(7.03529 0.0587403 -9.28843e-17)
(7.52417 0.0359251 0)
(5.7581 0.294123 0)
(7.76919 -0.00869199 -2.62088e-17)
(7.96723 -0.0419116 -8.85542e-17)
(5.0686 0.120144 1.20688e-16)
(5.32452 0.123103 2.22274e-17)
(4.94205 -0.117769 4.66422e-17)
(8.06257 -0.0928688 -2.74623e-17)
(5.33429 -0.0985271 -2.65669e-16)
(7.85058 0.0560703 0)
(5.18595 -0.0332467 -8.22501e-17)
(7.39768 0.130622 3.32944e-17)
(5.48503 0.109229 -1.395e-17)
(7.04476 -0.00399669 0)
(7.28893 0.313621 -8.2995e-18)
(7.51385 -0.101086 -6.2842e-17)
(5.35147 0.0241452 0)
(7.0004 0.0103487 -3.91658e-17)
(7.02988 -0.0196173 7.99126e-17)
(7.30982 0.00771037 0)
(5.62964 0.0456011 -8.3633e-18)
(8.02166 -0.131826 8.07137e-17)
(7.43832 0.0498737 0)
(4.7463 -0.149993 0)
(8.48437 0.0411156 0)
(7.25565 -0.0598704 4.29781e-18)
(7.17025 -0.113031 -6.00387e-17)
(4.48671 0.140842 -9.32767e-17)
(7.87886 -0.0980607 0)
(6.7747 -0.000173744 -4.44533e-17)
(6.60288 0.0707597 4.02542e-17)
(7.6709 0.158404 -1.84146e-17)
(7.71515 -0.00836317 5.20356e-17)
(4.68699 -0.0785647 0)
(8.14624 0.0314483 0)
(7.12299 -0.0635679 0)
(7.04372 0.0835537 -8.01134e-18)
(7.27234 -0.129438 1.0592e-18)
(7.23736 0.0150911 -7.27238e-17)
(7.22273 -0.233229 -1.07265e-18)
(7.48605 0.0145148 0)
(5.81307 0.053644 -4.61037e-17)
(7.46954 0.031403 -3.6255e-17)
(7.75306 0.144253 -1.86529e-20)
(7.60701 0.00920169 7.25004e-17)
(7.64445 -0.0916832 3.8893e-17)
(7.49405 -0.0796937 3.80355e-17)
(8.25152 -0.138931 3.94798e-17)
(7.61461 0.0174408 5.19636e-17)
(7.53144 0.104001 -3.22301e-16)
(5.65336 -0.133047 3.99617e-16)
(7.03756 -0.128585 3.94136e-17)
(8.06876 0.122736 0)
(7.80582 -0.107928 -1.66801e-17)
(8.00601 -0.0976686 1.68139e-17)
(5.0005 0.112362 6.42491e-16)
(7.36001 0.0995994 -1.78705e-16)
(5.37804 -0.0940416 -9.16235e-17)
(7.11703 -0.148943 1.05752e-18)
(6.96924 0.15263 0)
(7.43253 0.190364 -3.67015e-17)
(4.67034 -0.372214 0)
(5.12368 -0.225275 -3.90832e-17)
(7.36248 0.00778756 -3.78797e-19)
(7.03494 0.0398477 1.92785e-17)
(7.93955 -0.10452 9.48698e-17)
(7.54547 -0.0631781 5.04254e-17)
(3.88155 -0.706657 -4.29819e-18)
(7.00592 0.0766213 4.6197e-17)
(6.95818 0.12956 -2.66351e-17)
(7.46245 -0.0326069 2.86124e-17)
(7.20293 -0.123354 0)
(6.69272 0.096816 0)
(7.09751 -0.224126 -1.94171e-17)
(4.68831 -0.013933 8.58765e-18)
(3.55839 -0.574556 -2.10988e-17)
(6.51298 -0.0618498 1.22646e-17)
(7.52343 0.0482274 -2.93761e-18)
(7.0198 0.0922688 1.18543e-17)
(6.99106 0.0889785 0)
(7.35984 0.0836959 -8.02333e-17)
(7.1084 0.0919044 -6.03208e-17)
(3.59895 -0.405091 3.86502e-17)
(4.00217 -0.521295 -2.93027e-17)
(7.5016 0.00842266 5.78218e-18)
(7.59015 0.0146421 0)
(7.24806 -0.128498 -8.72483e-18)
(3.94775 0.120195 -2.64926e-17)
(7.94195 -0.169192 8.31352e-17)
(8.00054 -0.170494 -8.90841e-17)
(6.96955 0.118213 0)
(6.97546 0.13082 0)
(6.98482 0.101061 -5.3109e-17)
(6.88071 -0.297517 8.22647e-18)
(7.23457 -0.178524 1.01787e-16)
(0.406781 0.0778444 -6.81641e-17)
(7.04373 0.0837552 2.40087e-17)
(6.97671 0.128345 4.05981e-17)
(8.22885 -0.194756 -1.21006e-16)
(7.19844 -0.101803 -1.15313e-19)
(7.14799 -0.135627 4.19777e-18)
(7.25059 -0.130777 8.02502e-18)
(6.65774 0.156478 -4.33675e-18)
(7.46978 -0.138677 0)
(7.20773 0.230218 -1.93386e-17)
(7.02486 0.107643 -4.71336e-17)
(6.56966 -0.264608 4.06332e-17)
(6.99954 0.00688245 0)
(6.75761 -0.254683 2.91041e-17)
(7.14155 -0.117374 -5.10834e-17)
(7.08023 0.093691 9.50267e-17)
(7.29019 0.116324 3.86634e-17)
(7.11159 0.0554445 -3.25146e-17)
(7.25432 0.117605 7.37426e-17)
(7.0376 0.00917161 -9.5558e-18)
(7.34736 0.267599 8.02605e-19)
(7.1023 -0.160666 5.97308e-17)
(7.70574 -0.263447 -7.00499e-18)
(7.76393 -0.0384913 0)
(7.01722 -0.194744 -1.71585e-17)
(7.47499 0.265549 -2.2836e-17)
(7.21229 -0.0578176 -5.11694e-17)
(7.14859 0.187471 -8.14516e-18)
(7.36198 0.0326605 3.39262e-17)
(7.31647 0.0704459 5.70314e-17)
(7.00344 0.00643256 -2.9934e-18)
(6.6291 0.124889 -6.04642e-18)
(7.79122 0.093608 3.29108e-17)
(7.86994 -0.110758 1.04625e-17)
(6.47997 0.197412 0)
(6.94435 -0.0953542 1.33347e-17)
(7.37901 -0.0740878 2.44283e-17)
(7.02489 0.0590612 3.67834e-17)
(7.07719 -0.0108241 2.21057e-17)
(7.69327 -0.182198 -3.62451e-17)
(7.92718 -0.0924509 3.77682e-18)
(7.94787 -0.128264 0)
(7.70104 -0.133841 -6.89215e-17)
(7.23109 0.102824 1.88027e-16)
(6.90272 0.151926 -6.32976e-16)
(7.65638 -0.169561 0)
(7.76439 -0.176663 0)
(7.7502 -0.156195 6.99374e-18)
(7.68953 -0.166773 0)
(7.17966 -0.0674155 0)
(7.06978 -0.0135166 -5.70483e-17)
(7.50275 -0.18057 2.06195e-17)
(7.7589 -0.109078 0)
(7.67779 -0.15689 0)
(7.59545 -0.118899 -1.15716e-17)
(4.45349 -0.0286235 -3.60008e-17)
(4.1404 0.0915923 7.09938e-18)
(7.49703 -0.138569 0)
(7.30677 -0.163625 1.71901e-17)
(1.33604 -0.113768 -4.03078e-17)
(6.94441 0.0266407 -1.54444e-16)
(6.79419 -0.0188957 7.88932e-17)
(1.32093 -0.0656349 0)
(1.3035 0.0235078 0)
(4.9978 -0.0789125 -2.06586e-17)
(6.92696 0.115651 -3.24053e-17)
(6.58945 -0.0310067 1.52905e-18)
(8.23009 0.0565546 -3.62077e-17)
(7.02947 0.128057 -1.08016e-17)
(7.01927 0.110342 -8.59682e-19)
(7.03348 0.0784029 4.68937e-18)
(6.98396 0.122952 1.99442e-17)
(6.98637 0.0971265 1.46175e-17)
(8.32124 -0.124612 1.02412e-16)
(6.90211 -0.119639 7.68946e-17)
(6.72143 -0.203791 -4.071e-17)
(5.19732 0.0272979 -4.408e-17)
(7.0776 0.0685419 2.21993e-17)
(7.0388 0.0943932 4.69012e-17)
(7.61236 0.15571 0)
(1.39342 0.0221578 6.0527e-17)
(1.78529 0.0144401 0)
(7.73519 0.190614 7.05886e-18)
(8.0736 -0.0711604 0)
(7.63344 0.447328 -1.35744e-17)
(7.59985 0.278417 -1.40638e-16)
(6.97553 0.0885251 0)
(6.79656 0.111656 4.68734e-17)
(6.89934 0.0895588 6.91814e-17)
(7.36356 0.0836529 3.28064e-16)
(7.09306 -0.174471 -5.69786e-17)
(6.88686 -0.240011 -3.11278e-17)
(7.12116 -0.0116722 4.22512e-17)
(7.31045 0.0275478 -2.38277e-17)
(6.38256 -0.127865 -6.33526e-17)
(6.81059 0.0898021 -1.38587e-16)
(7.27029 0.210401 2.97415e-17)
(7.17532 -0.208695 -5.10461e-17)
(7.2607 -0.183555 -4.86319e-18)
(7.19995 -0.156358 -2.56455e-17)
(7.27757 -0.132981 1.62231e-17)
(7.45424 -0.139573 0)
(7.6553 -0.00140496 -9.86963e-17)
(8.28414 -0.0669624 -3.12564e-17)
(6.90049 0.0106522 4.81212e-17)
(7.42851 -0.0569681 -3.73241e-18)
(7.00132 0.0526359 -6.12022e-17)
(7.31787 0.0524146 0)
(7.60236 -0.0165109 6.71781e-18)
(7.45393 -0.123259 -6.66682e-18)
(7.79452 0.162618 -2.75438e-17)
(6.9904 0.226615 -1.83524e-17)
(7.00371 0.0225942 0)
(7.0016 0.043796 4.99688e-17)
(7.38876 -0.0826506 -1.19459e-17)
(7.25931 -0.0574331 1.1108e-17)
(6.80598 -0.0854031 4.13571e-17)
(6.93364 -0.0777907 0)
(6.51038 -0.230059 0)
(7.7613 -0.111871 -2.09248e-17)
(7.59116 -0.129648 8.52981e-18)
(7.81984 0.0783098 -7.92224e-18)
(8.01645 -0.077345 5.86367e-17)
(2.51814 1.27918 -6.99705e-18)
(3.02262 -0.486181 7.40012e-18)
(6.11481 2.39986 -2.38661e-18)
(6.2343 2.44541 0)
(3.04946 -1.39299 1.31392e-17)
(2.97023 -1.37281 1.37533e-17)
(7.5487 -3.66904 4.15698e-18)
(6.63084 1.11707 1.51843e-17)
(7.70768 -1.39964 2.40737e-19)
(4.31429 -0.749641 -2.11123e-17)
(6.61841 1.61953 9.87135e-19)
(5.43186 -1.44662 -1.44602e-17)
(3.91102 -0.733322 0)
(7.09714 -0.312537 -6.77568e-18)
(3.28412 -0.472891 -2.21801e-17)
(4.02196 -1.38885 -1.43608e-18)
(0.587549 0.279064 7.33059e-17)
(7.76177 -1.35591 2.94665e-19)
(4.11898 0.152369 2.5195e-18)
(5.95173 -3.33042 1.24821e-18)
(3.92527 -0.432315 -3.66706e-19)
(4.024 -1.46653 0)
(6.3513 -3.01196 1.43574e-18)
(6.62194 -3.17217 5.50684e-18)
(6.42751 -3.63197 2.3109e-18)
(6.52107 -3.62398 -1.41159e-18)
(6.28283 2.1773 -1.81718e-18)
(6.22751 2.28013 1.97885e-18)
(0.695437 -0.361919 0)
(3.20095 -1.36441 2.69914e-18)
(3.11212 -1.30975 -1.89694e-17)
(4.55788 -0.839426 1.74564e-17)
(6.35195 -1.71276 -9.46492e-18)
(6.62642 2.69952 2.56186e-19)
(6.1008 2.71228 1.09232e-19)
(5.9564 -3.96581 1.81175e-18)
(1.58544 0.614755 -1.66926e-17)
(6.074 2.34595 -3.21483e-18)
(6.78533 -1.90865 0)
(6.90673 -1.81685 2.2936e-20)
(6.86771 1.73037 -2.39845e-19)
(6.79323 1.73107 0)
(6.47667 1.94644 -2.38721e-18)
(6.5245 1.98831 0)
(6.53943 0.991717 0)
(6.69832 1.82034 -1.25848e-18)
(6.75754 1.81633 1.09021e-18)
(3.30073 -0.602884 3.0735e-17)
(3.41123 -0.649113 3.01095e-17)
(5.92488 2.64853 -2.27224e-18)
(6.24693 2.43965 0)
(6.22488 2.44761 0)
(7.44069 -3.1043 3.9142e-18)
(7.3086 -3.39838 6.52472e-18)
(4.15148 -0.618373 0)
(4.16058 -0.325598 0)
(5.93664 -3.6712 1.85782e-18)
(5.24489 -1.22117 3.54132e-17)
(4.72846 -1.06292 -9.78549e-18)
(4.13246 -0.795132 -3.18131e-17)
(3.61678 -2.15891 3.15229e-18)
(6.3061 2.10525 0)
(3.56278 -1.56857 -3.73793e-18)
(6.20648 2.43422 3.88378e-19)
(6.23454 2.31844 -4.88726e-19)
(3.2569 -1.27068 9.70457e-18)
(6.79672 -0.386293 0)
(5.89927 -3.73602 0)
(2.94336 0.0298476 0)
(6.50441 -4.0121 1.71546e-18)
(6.50058 -3.9685 -8.28923e-19)
(5.92983 -3.79585 0)
(5.98618 -3.7976 -3.52581e-18)
(5.91123 -3.87034 1.82339e-18)
(4.03174 -0.411685 1.229e-18)
(4.06085 -0.554631 2.26166e-21)
(6.91522 -3.03721 -2.46333e-19)
(6.21784 2.17906 3.13445e-19)
(6.18962 2.2428 4.793e-18)
(6.58184 -3.35753 2.95724e-18)
(6.76846 -4.0941 0)
(3.18749 -1.5093 -7.36459e-18)
(3.13098 -0.321341 0)
(6.14114 2.24242 -5.14089e-18)
(6.12685 2.2786 0)
(6.11014 2.18601 0)
(7.06865 0.246596 -1.84295e-17)
(4.14785 -0.402872 -3.3223e-18)
(4.15428 -0.545389 -3.6738e-18)
(6.60027 0.494518 -7.59459e-17)
(6.70686 0.379246 -4.79702e-17)
(4.0489 0.867682 2.04718e-18)
(4.01946 1.0145 -2.55202e-18)
(6.55253 -3.94432 0)
(6.11466 -3.59802 1.59449e-19)
(6.2713 2.37275 0)
(6.33504 2.3368 0)
(6.30733 2.31426 0)
(6.30518 2.38723 0)
(3.09607 -1.19863 -5.43236e-18)
(5.85187 -3.88969 0)
(3.08456 -0.49768 9.93405e-18)
(3.16946 -0.493847 -6.36091e-18)
(3.13684 -0.41788 -1.75973e-17)
(3.12217 -0.539624 -5.17162e-18)
(6.41534 2.24584 5.26206e-19)
(6.37341 2.21728 3.79264e-18)
(6.64429 -4.02029 1.71393e-18)
(6.2263 2.39319 3.57133e-19)
(6.64656 1.51213 9.26474e-18)
(7.45717 -0.430767 0)
(7.11561 -2.55749 1.72953e-17)
(7.35566 -2.91045 3.6584e-18)
(6.68665 -2.20256 0)
(7.06762 -0.344118 2.85437e-18)
(3.30524 -0.349234 0)
(3.32409 -0.124839 0)
(5.76725 -0.772955 0)
(0.620016 -0.192148 6.54577e-17)
(6.69045 -2.69144 -5.3821e-19)
(2.86305 -1.90198 -1.11742e-18)
(7.18163 -2.72824 0)
(3.11044 -0.646871 4.57557e-18)
(3.10264 -0.845642 9.8551e-18)
(6.25544 2.4207 -7.61408e-20)
(6.24534 2.40343 -1.32767e-20)
(6.2821 2.41062 1.08996e-19)
(6.19669 0.323614 -7.74267e-17)
(3.51431 -0.172479 3.01165e-17)
(3.38574 -0.32873 2.16904e-18)
(3.53135 -0.33216 -3.33578e-17)
(3.40209 -0.163873 -2.28027e-18)
(6.99028 0.168592 1.99085e-17)
(7.05111 -0.248816 -3.01623e-18)
(3.55157 -0.103581 -2.42824e-17)
(3.83248 0.0425212 -5.77745e-18)
(3.80074 -0.127325 1.06424e-18)
(3.70078 0.607958 0)
(3.90297 0.353922 2.57932e-17)
(3.02338 -1.18625 0)
(3.00785 -1.09062 6.69889e-21)
(6.61293 -0.55924 7.60413e-18)
(6.66374 -0.35465 3.20225e-18)
(6.21667 2.31649 -5.14509e-19)
(6.24402 2.36196 5.41275e-19)
(3.78947 -0.306916 1.66346e-17)
(6.37906 2.34484 0)
(6.41158 2.30208 0)
(6.3932 2.41687 0)
(6.95302 -3.42628 5.94557e-18)
(7.20327 -3.48497 0)
(2.9362 -0.466157 -6.33777e-18)
(7.06547 -2.88827 -5.68678e-18)
(6.7468 -3.06056 6.01162e-18)
(6.59547 -4.05412 0)
(6.53956 -4.01382 -1.81394e-18)
(6.6031 -4.01526 7.42149e-20)
(6.53886 -4.06313 0)
(6.7258 0.277449 0)
(6.47229 -3.50158 5.56322e-20)
(6.54838 -3.58023 1.40221e-18)
(6.59217 -3.45205 -1.43859e-18)
(6.44134 -0.415974 -4.00135e-17)
(6.45997 -0.532946 5.43797e-17)
(6.52581 -0.358911 -6.10134e-17)
(3.16138 -0.272347 5.49537e-18)
(3.25118 -0.17596 -5.66135e-18)
(3.18179 -0.172634 -2.86292e-18)
(3.24148 -0.27943 2.74773e-18)
(4.41886 -0.419972 -3.10156e-17)
(4.19603 -0.534615 1.08219e-18)
(4.3211 -0.551232 0)
(4.35425 -0.322745 1.8834e-17)
(6.84164 0.559289 1.82746e-17)
(3.22134 -3.05719 4.03057e-18)
(3.40945 -2.87437 1.76457e-18)
(3.40249 -1.83018 6.2749e-20)
(3.25222 -1.86713 -5.15812e-18)
(3.14839 -0.147927 -5.04425e-18)
(3.15419 -0.0303938 5.40701e-18)
(3.05654 -0.168641 0)
(4.16445 0.475406 0)
(3.9023 0.765533 9.02014e-18)
(4.3606 -0.243166 0)
(4.15456 -0.0342891 0)
(4.08141 -0.224425 0)
(4.37581 -0.112556 0)
(6.89649 -1.64041 6.34634e-20)
(6.89537 -1.70501 0)
(6.23019 -3.42939 1.37186e-18)
(6.26866 -3.52807 0)
(6.35244 -3.4621 2.03996e-19)
(6.18352 -3.45549 -4.12549e-18)
(3.98786 1.08969 0)
(6.28624 -3.09356 -5.61145e-18)
(6.06505 -3.24556 0)
(4.03647 1.57612 -1.16265e-18)
(4.07317 1.11458 0)
(3.75137 -0.390809 -2.40644e-17)
(3.98914 -0.239617 0)
(3.83638 -0.196869 0)
(3.96691 -0.389719 2.9616e-17)
(3.44347 -1.15175 4.15342e-17)
(3.38486 -1.27755 -1.48976e-17)
(6.92922 0.136659 -4.80824e-18)
(6.57993 -0.0634229 9.16183e-17)
(6.53708 -0.169844 0)
(6.49432 -0.126644 9.12362e-17)
(6.6175 -0.14783 0)
(3.38529 -1.04648 -1.80027e-17)
(3.46196 -0.908831 0)
(3.2636 -1.00697 0)
(4.49427 -1.09888 -2.49148e-17)
(4.65716 -0.729264 -1.12154e-17)
(4.47505 -0.829114 1.15884e-17)
(6.25543 -3.65723 1.17288e-18)
(6.27053 -3.58053 1.92056e-18)
(6.34006 -3.60516 -1.20413e-18)
(6.21338 -3.60012 -2.61757e-18)
(6.88359 -3.3613 -7.62639e-18)
(6.71193 -3.21991 -4.88318e-18)
(6.92394 -3.26844 1.74086e-18)
(6.67543 -3.32356 -3.5568e-18)
(4.00869 -1.04026 0)
(4.00432 -1.12923 0)
(3.94487 -1.03191 -3.62745e-19)
(6.09442 2.77033 4.5483e-20)
(7.34862 -0.181111 -2.87189e-17)
(7.16804 -0.211747 3.32401e-18)
(7.24204 -0.201247 1.78778e-17)
(7.27531 -0.183321 -1.21043e-17)
(6.3529 2.91341 -9.00099e-20)
(5.2671 -0.151154 5.11078e-17)
(6.10393 2.34872 -1.68559e-18)
(6.11694 2.37546 -7.87768e-19)
(6.1371 2.31535 1.39972e-18)
(3.44603 -1.40407 0)
(3.3663 -1.55574 0)
(3.63211 -1.42294 2.58917e-17)
(6.24861 -1.37673 5.25449e-18)
(3.57836 0.36511 0)
(3.74977 0.365921 2.54614e-19)
(3.6793 0.286521 0)
(3.65497 0.496592 -1.07302e-17)
(6.93749 0.426836 2.34031e-17)
(3.11228 -0.929311 2.86635e-18)
(3.01807 -1.03962 -6.46689e-18)
(3.02305 -0.968546 3.41367e-18)
(3.11246 -1.02451 0)
(8.02451 0.19481 -6.37044e-17)
(0.545593 -0.0868029 1.28118e-16)
(7.74037 -0.338355 4.39095e-17)
(8.0666 -0.0261303 0)
(1.88468 -0.16441 -3.2132e-17)
(7.08396 0.285399 -1.61626e-17)
(4.663 0.0626146 -7.82206e-17)
(6.99735 0.0210331 3.68841e-17)
(7.0074 0.106886 -2.38331e-17)
(7.0066 0.0816868 -4.77163e-17)
(7.95712 -0.221394 0)
(3.56132 -0.427833 -3.11558e-18)
(6.75938 0.27976 0)
(6.80348 0.233756 1.81966e-17)
(6.05814 -0.0878178 0)
(6.3187 0.187914 -9.02723e-17)
(6.21126 0.232866 4.79568e-17)
(6.51627 0.0727744 2.5476e-17)
(6.44561 0.115341 0)
(3.22451 -0.300658 5.88699e-18)
(6.91894 0.17453 -4.32541e-17)
(6.89693 0.207757 -4.76131e-17)
(5.42124 -0.174197 -3.16317e-17)
(6.95788 0.29292 1.79638e-17)
(6.94712 0.344743 1.20175e-17)
(2.9506 0.535974 2.66657e-17)
(7.0093 0.0747298 4.21894e-17)
(7.68804 0.32917 -1.89588e-17)
(0.377424 0.103409 -8.60445e-17)
(6.99961 0.142286 -1.27112e-17)
(6.97028 0.227302 2.90584e-17)
(7.18898 0.278402 0)
(5.45544 -0.333295 -6.2809e-17)
(7.39568 -0.200706 9.04506e-17)
(3.32263 -0.321246 3.15771e-18)
(3.54538 -0.250699 -1.57206e-17)
(6.88923 0.870038 1.24989e-17)
(7.01202 0.117354 3.1502e-17)
(7.31993 -0.245593 -2.39473e-17)
(7.37531 -0.26169 -8.35033e-17)
(7.32523 -0.315095 2.74018e-17)
(7.61283 -0.191472 4.05639e-17)
(6.57925 -0.396372 7.04986e-18)
(6.5588 -0.496537 -9.71352e-18)
(7.11655 -0.178615 8.43757e-19)
(7.10143 -0.217647 2.27837e-17)
(7.05392 0.205251 -9.5109e-18)
(6.37308 -0.288236 -6.87401e-17)
(6.71501 -0.40932 0)
(6.68754 -0.523133 0)
(6.97231 -0.152559 -5.2002e-18)
(6.86876 -0.158567 0)
(0.360085 0.104648 0)
(3.09113 0.488603 1.56126e-17)
(7.55259 -0.144152 3.135e-17)
(7.6363 -0.118686 5.64144e-18)
(7.25058 0.392793 1.83418e-19)
(7.07372 -0.219741 0)
(7.13594 -0.188602 0)
(6.7011 0.223811 -1.71616e-17)
(7.56874 -0.374015 0)
(7.00249 0.068328 -2.23852e-17)
(6.99705 0.0851106 8.06391e-17)
(7.01147 0.174778 -2.60373e-18)
(7.31233 -2.73246 1.25408e-17)
(6.95403 -2.31329 -9.95123e-18)
(6.95026 -2.20518 9.14615e-18)
(5.69308 0.0802046 3.82748e-17)
(7.00974 0.150305 0)
(4.93666 -0.112162 -2.29707e-16)
(7.36305 -0.342792 0)
(6.68144 -0.0690395 -2.47072e-17)
(6.44415 -0.0774511 1.17004e-17)
(6.3214 -0.0797849 1.15332e-17)
(7.1081 0.326199 -2.67235e-17)
(3.10485 -0.546148 0)
(7.4608 -0.366448 8.02292e-18)
(7.41679 -0.333748 -3.804e-17)
(4.7858 -0.149715 0)
(4.97637 -0.138758 0)
(2.97248 -0.944409 9.13084e-20)
(7.80208 0.225739 -9.51145e-18)
(7.22267 0.217244 -3.97938e-17)
(7.28983 -0.0333068 0)
(8.35645 -0.0577764 -1.04906e-16)
(7.15848 0.361872 0)
(7.12489 0.321032 1.28406e-17)
(6.945 0.189205 -3.22877e-17)
(4.77399 -0.51465 0)
(8.15159 0.103895 -3.9887e-17)
(7.94442 0.181895 -8.35844e-17)
(5.98179 0.0226539 4.78288e-17)
(5.83067 0.0926462 -5.60076e-17)
(7.34015 0.092605 -1.31511e-17)
(6.36864 2.08701 1.52956e-18)
(6.40318 1.99542 -1.67025e-18)
(5.97516 -0.135456 -2.01658e-17)
(7.00072 0.020602 0)
(6.98129 -0.316391 -2.38326e-18)
(7.05894 -0.24612 -2.40554e-18)
(7.00304 -0.273768 0)
(8.13728 -0.0285369 1.2602e-17)
(8.06604 0.0325058 -2.52055e-17)
(3.97176 0.479291 0)
(3.8592 0.639286 1.97164e-17)
(6.40645 2.12934 2.68599e-18)
(6.48956 2.08453 -2.48011e-18)
(6.7905 0.0427515 1.44646e-16)
(6.57551 0.0451197 5.3244e-17)
(0.683032 0.14678 1.09415e-17)
(5.15173 -0.0494596 5.12335e-17)
(7.07392 -0.00755169 -9.5747e-17)
(6.9459 0.133768 -3.9343e-17)
(6.87946 0.153234 6.43229e-17)
(6.831 0.18686 -5.63944e-17)
(7.0095 0.0540908 0)
(7.00206 0.0429216 -1.13435e-17)
(6.92639 -0.350417 2.39212e-18)
(6.93259 -0.29605 -8.2508e-18)
(7.0045 -0.256592 0)
(3.66542 -1.33404 -2.8348e-17)
(3.56905 -1.16528 -8.01469e-18)
(3.65969 -1.03867 0)
(6.8861 0.171836 -6.77956e-17)
(6.85084 0.238925 -3.74354e-17)
(6.87354 0.206248 4.4671e-17)
(6.82128 0.253805 6.07476e-17)
(7.82548 0.343024 1.00479e-16)
(7.77822 0.298188 -4.33513e-17)
(7.82325 0.225739 0)
(6.79901 -0.0820119 2.88379e-17)
(3.07965 -1.52398 -7.21511e-18)
(6.61579 0.101093 -2.55415e-17)
(6.57971 0.148322 4.33117e-18)
(6.95072 0.0578525 1.10538e-16)
(7.27434 -0.0833084 1.34174e-16)
(3.65967 -1.59909 0)
(3.46182 -1.68379 4.67127e-18)
(5.66475 -0.0475128 -9.0572e-17)
(5.50098 -0.065046 3.7444e-17)
(7.3797 0.102422 0)
(6.842 -0.0839878 8.39031e-17)
(7.52239 0.0771882 -4.72625e-17)
(7.34037 -0.16248 0)
(7.50273 -3.39511 7.97748e-18)
(7.48664 -3.18965 -8.12983e-18)
(5.09671 0.0592648 0)
(5.25945 0.0020513 -4.8686e-17)
(5.40523 0.070537 3.30157e-17)
(4.25562 0.28542 0)
(4.41683 0.243704 2.14101e-17)
(6.86226 0.272463 -1.54964e-17)
(6.85015 0.313153 -1.41153e-17)
(6.82173 0.327082 0)
(7.94882 -0.205139 -7.16191e-17)
(7.05416 0.00987447 0)
(6.96903 -0.00564211 -3.89537e-17)
(6.50831 -0.00501675 -1.65625e-16)
(6.34746 -0.0755315 0)
(6.41431 -0.00147534 9.9177e-18)
(7.11485 0.250121 1.77878e-17)
(7.11922 0.285853 3.30906e-18)
(6.23649 -0.0550042 0)
(6.21885 0.0401804 -2.44033e-17)
(6.11205 0.0929565 -1.12185e-16)
(7.0132 0.029413 0)
(7.52804 -0.341244 0)
(7.66022 -0.293574 0)
(7.6616 -0.266282 0)
(0.746459 -0.101203 -5.46457e-17)
(3.00784 0.479039 -7.43212e-18)
(7.1183 -0.246256 0)
(7.08346 -0.285307 1.19734e-17)
(7.04579 -0.278857 -7.57229e-18)
(3.68322 -0.737518 6.07907e-18)
(3.60231 -0.89573 0)
(7.71883 -0.121712 6.99282e-18)
(7.97356 0.0715079 6.44181e-17)
(7.71442 0.148478 0)
(9.72545 0.440932 1.13351e-18)
(9.6744 0.506707 0)
(5.98693 1.12293 1.6084e-19)
(6.43918 -4.3154 1.32648e-20)
(6.657 0.554647 -7.04884e-17)
(3.83832 0.352614 1.99401e-18)
(6.518 1.1304 -3.22382e-20)
(2.96735 0.500977 6.6795e-18)
(3.81155 -0.676226 0)
(6.10899 3.11027 1.72503e-19)
(5.51273 -3.13621 0)
(5.54282 -3.21655 0)
(7.13214 -4.15878 0)
(6.26686 2.17923 0)
(6.26867 2.16375 3.48558e-20)
(6.10929 2.31231 0)
(6.10582 2.33647 -1.97958e-21)
(6.13733 0.718364 0)
(7.93231 0.270301 -5.21607e-19)
(7.00101 -2.13035 0)
(3.67776 -2.26999 1.62682e-18)
(4.27735 0.211536 2.57158e-19)
(6.19447 -2.16337 6.86019e-20)
(6.23753 -2.21412 -8.62042e-20)
(6.88994 -4.15673 -1.8821e-19)
(6.89926 -4.16136 0)
(6.95428 1.0218 0)
(8.39686 0.928672 0)
(1.5276 -1.68244 4.21224e-17)
(2.8395 0.0847608 -2.19042e-18)
(2.46019 -2.85992 -5.91171e-18)
(2.36501 -2.81517 0)
(6.48062 2.69315 1.69422e-20)
(7.46004 0.766514 0)
(7.44824 0.807951 0)
(4.84708 0.935561 0)
(3.4052 -2.71864 0)
(7.44815 0.514134 -2.97982e-20)
(2.60636 -0.863737 -5.13395e-18)
(7.19493 1.23216 3.04166e-20)
(3.48569 -1.89604 -2.11568e-18)
(6.10013 0.735274 -1.40784e-22)
(4.18926 1.03991 0)
(4.16428 1.00002 0)
(6.50921 2.90748 0)
(8.04626 0.172112 -5.07419e-19)
(6.68148 -4.21755 9.58345e-19)
(3.14307 -3.68083 2.17683e-18)
(3.27049 -3.39868 2.69603e-20)
(6.99253 1.01288 0)
(8.50837 -0.572794 0)
(6.05424 3.13641 -4.33434e-19)
(6.00628 3.09622 0)
(6.02033 2.90928 6.86683e-19)
(6.69018 -0.741149 1.94967e-17)
(8.0123 0.497568 0)
(7.31811 0.936912 -6.88888e-20)
(6.69009 -0.834394 2.30126e-17)
(6.05697 3.49861 -2.7928e-21)
(6.79516 -2.07589 -6.29275e-20)
(6.78937 -2.0283 7.56629e-20)
(7.07974 -4.11988 8.54359e-19)
(7.10612 -4.11495 2.94696e-18)
(7.44708 0.664337 -5.02794e-20)
(7.45371 0.606261 -1.4004e-20)
(8.67538 -0.278291 1.41369e-18)
(6.21036 2.14928 0)
(6.24847 2.15571 -3.24099e-20)
(8.96958 1.0009 2.02403e-18)
(6.47308 0.95556 3.00412e-20)
(6.06349 -4.23629 2.32513e-18)
(5.50414 -3.03989 -2.1723e-18)
(5.84894 3.06659 -3.24834e-20)
(6.39717 -2.33076 2.51245e-20)
(7.82047 0.19989 0)
(6.04097 -2.44609 4.49935e-18)
(6.41531 0.907472 -7.69583e-18)
(6.28479 -1.47547 0)
(4.38366 -1.48745 3.06237e-17)
(9.08585 0.0286904 2.99428e-20)
(3.34431 2.2102 -2.5137e-18)
(5.71814 2.4661 1.43791e-18)
(5.66809 2.43013 -1.40421e-18)
(7.30373 1.1079 0)
(3.91886 -0.810864 -3.48632e-19)
(3.93851 -0.976099 -3.22533e-19)
(6.22304 2.30255 1.99372e-19)
(6.27555 -2.31916 6.04101e-20)
(4.281 1.74604 -2.64501e-19)
(2.9733 -0.08116 6.41155e-18)
(3.0427 0.0829947 1.15263e-17)
(7.35722 -1.36002 2.38136e-19)
(6.17832 0.934589 1.26637e-19)
(6.20502 0.957987 -2.05813e-19)
(6.28416 -4.36316 -1.21824e-18)
(6.21918 -4.37344 -2.55624e-20)
(8.399 0.271419 3.85942e-19)
(8.39672 0.322875 2.76972e-19)
(7.20292 -1.65483 0)
(7.0667 0.495158 -9.39014e-21)
(4.22458 1.42027 1.384e-18)
(4.30013 1.33142 1.80551e-18)
(7.03833 3.30682 1.16168e-19)
(7.16256 0.621197 -3.12544e-20)
(5.72606 -4.15409 -1.30124e-18)
(6.23238 3.27152 3.95792e-20)
(6.31018 3.16014 2.90954e-21)
(4.51089 -0.264341 -1.42841e-18)
(4.69557 -0.344271 -6.87437e-19)
(7.91111 -0.865736 0)
(6.68856 0.566008 1.10522e-19)
(7.9834 0.693806 0)
(7.86177 0.652314 2.25157e-19)
(6.49772 0.689035 -1.76167e-19)
(4.13801 -1.47882 0)
(4.07708 -1.49973 0)
(6.35627 0.918307 2.54222e-20)
(7.62834 0.168332 -1.23456e-19)
(7.2611 -4.13451 0)
(5.60251 1.17393 0)
(7.65567 -3.61466 0)
(6.52822 -4.35033 6.53865e-19)
(6.51917 -4.37869 1.17449e-18)
(4.50873 0.172806 1.80256e-18)
(4.52901 0.105857 -1.61961e-18)
(3.96486 -1.19723 -3.72944e-19)
(8.42487 -4.54626 1.06475e-18)
(7.96453 -2.70029 1.23512e-19)
(1.20945 -3.34589 4.68532e-18)
(8.04058 -3.83762 4.61154e-19)
(5.92935 2.09754 -1.07314e-19)
(6.18095 2.43729 5.57839e-19)
(7.5368 -0.602285 -3.05712e-19)
(7.64589 -0.595651 1.29829e-19)
(5.79636 2.91948 7.05451e-20)
(3.978 -0.643885 1.36597e-18)
(3.86796 -3.02867 6.53601e-18)
(6.65044 1.10054 0)
(9.37024 -2.1109 2.31904e-18)
(7.57816 0.899084 1.87229e-19)
(7.03386 -1.1265 0)
(6.73063 0.666052 4.05293e-20)
(6.20573 1.93463 6.81263e-19)
(6.1634 1.89495 -1.39717e-18)
(8.21427 -0.421517 4.42114e-19)
(8.19455 -0.332971 -8.03997e-19)
(5.99338 -2.63896 -3.29274e-19)
(4.34908 0.685276 -9.28692e-19)
(6.35008 2.33151 -9.24814e-20)
(6.41226 3.04784 -1.85136e-21)
(7.27826 1.05706 1.8418e-20)
(5.96729 1.05613 1.55674e-19)
(6.99352 0.562371 0)
(2.41524 -1.93168 0)
(3.80736 -0.590229 0)
(8.19774 1.60223 1.29385e-19)
(7.83458 -0.71268 2.31944e-19)
(7.12746 -1.65609 -1.39929e-19)
(6.97643 -1.70628 0)
(4.74134 0.0168608 -1.64107e-18)
(4.79811 0.00655626 0)
(5.44255 -3.47625 -1.96322e-19)
(5.54992 -3.5082 -8.64645e-19)
(6.70951 -1.00934 0)
(8.44056 -0.131004 0)
(8.42672 -0.0788325 0)
(6.96871 -4.14179 0)
(6.92281 -4.15421 0)
(6.53677 2.50286 8.52982e-21)
(6.52635 2.94351 -4.54038e-21)
(6.51729 2.98173 1.03383e-20)
(6.30772 2.32981 -1.11988e-19)
(7.38444 -1.50535 2.5335e-19)
(7.24756 -1.59077 9.8799e-20)
(7.03218 3.3599 -2.59285e-19)
(5.71165 1.12893 0)
(5.90575 1.0548 3.05484e-19)
(5.91525 1.01024 1.56834e-19)
(7.29293 0.800221 1.54989e-19)
(7.39774 0.813228 -1.42432e-19)
(7.80109 -4.25894 4.28135e-18)
(7.84661 -4.21026 0)
(6.05282 2.31065 -2.82427e-20)
(7.11928 -1.02108 1.00482e-19)
(7.09749 -1.11595 0)
(3.01381 0.613497 -6.94036e-18)
(2.97671 0.572267 7.88414e-18)
(3.00959 0.730759 -3.53078e-18)
(6.81515 -4.09713 1.06045e-18)
(6.06327 -0.24115 0)
(6.30191 -0.901742 0)
(5.86087 0.587799 3.99427e-19)
(5.88903 -2.13674 0)
(4.45724 0.654813 -1.00719e-19)
(4.52533 0.551637 1.23381e-18)
(7.2638 -3.78406 4.02006e-18)
(7.46791 -0.597661 -3.55442e-19)
(6.22056 2.21377 -1.74633e-19)
(7.25145 1.69858 8.55697e-20)
(8.28948 -0.750232 0)
(8.37367 -0.611987 0)
(6.15638 0.361621 9.88539e-21)
(7.21829 -1.98334 3.5984e-19)
(6.59272 -4.37768 -2.70216e-19)
(6.49405 1.50668 8.85181e-19)
(7.89038 0.624259 0)
(7.96437 0.643992 0)
(6.33975 -4.27218 6.88345e-19)
(6.42384 -4.25673 0)
(7.33483 -4.6092 -9.30835e-19)
(4.6649 0.340574 0)
(4.49788 -0.19718 2.37618e-19)
(3.35835 -3.26584 0)
(6.32594 2.21654 1.08501e-19)
(6.41736 -4.41881 0)
(6.31539 2.25508 5.24236e-20)
(6.35531 2.28838 -9.22197e-20)
(5.46469 -3.26935 3.06657e-19)
(5.29614 -3.35068 0)
(7.72519 -1.08164 0)
(7.67204 -1.12852 0)
(8.19785 1.16483 0)
(6.29635 2.2418 -5.51057e-20)
(6.26239 2.20758 1.70785e-19)
(6.35267 2.26621 -5.93093e-20)
(6.37419 2.26243 5.11899e-20)
(6.33742 2.25046 7.77306e-22)
(7.51764 0.607277 -1.30626e-19)
(4.87664 0.902726 0)
(9.29721 -2.15784 9.92391e-19)
(6.48346 2.72831 7.91945e-21)
(6.28621 2.53619 -2.84731e-19)
(6.254 2.54612 0)
(5.95869 -4.34072 -4.90148e-19)
(5.95855 -4.37825 5.00842e-19)
(6.81496 0.989588 -8.1716e-22)
(4.1595 0.638475 -4.5351e-20)
(5.48109 -1.7104 -1.72237e-17)
(5.11839 -1.39058 1.89868e-17)
(6.17175 -2.05223 1.40813e-18)
(6.22022 1.02896 1.39071e-19)
(3.81312 0.288892 -3.20672e-18)
(6.08428 2.26749 -1.51317e-19)
(6.44864 2.32575 1.26625e-20)
(8.14353 -4.45151 -1.36051e-18)
(4.35305 1.2152 0)
(4.90234 -0.390343 -9.37072e-19)
(6.07359 2.35382 4.83307e-19)
(6.08634 2.33953 -6.56231e-19)
(6.04997 2.34258 -1.39357e-19)
(6.52349 -1.98257 4.04434e-20)
(7.11828 -1.38954 0)
(8.06267 -4.19835 1.32963e-18)
(6.88135 -1.39457 2.38495e-20)
(6.76614 -1.46599 2.80526e-20)
(7.78883 0.638692 1.62307e-19)
(6.76137 -4.13512 -2.865e-21)
(6.68575 -4.17034 0)
(5.84263 -3.16022 7.4732e-19)
(7.54226 -4.43938 3.81407e-19)
(6.50051 -3.08017 1.40931e-19)
(6.63818 -4.31303 9.68488e-19)
(8.32398 -1.31048 -9.2926e-20)
(3.26654 -3.20267 -1.88232e-18)
(3.33092 -3.25375 -7.51773e-21)
(1.71211 -1.43718 1.6143e-17)
(6.6963 -4.14734 3.27041e-19)
(6.6674 -4.13383 0)
(6.73424 -4.12778 -3.66271e-19)
(2.8589 0.716776 -9.87631e-18)
(4.50053 0.877973 -4.30347e-19)
(4.49831 0.936609 2.22896e-18)
(6.30368 -1.63614 0)
(6.65305 -4.18036 8.44901e-19)
(8.05935 -0.84715 -1.56259e-19)
(8.15483 -0.799863 -1.86514e-19)
(6.40605 -0.428732 -1.72443e-19)
(7.55247 0.818725 1.27747e-19)
(5.45063 2.97836 -4.96894e-19)
(3.20908 0.530395 0)
(7.60494 -3.78774 0)
(6.46012 1.58317 4.59712e-18)
(6.66537 -2.10642 -4.55458e-25)
(5.9032 2.70441 1.21568e-18)
(5.90627 2.84057 -5.47318e-19)
(6.64303 -1.02029 0)
(6.62753 -1.10306 3.10432e-20)
(6.55492 -1.14028 -1.02189e-19)
(7.34393 -4.28667 1.31548e-19)
(3.30053 -1.49775 -5.52089e-18)
(6.4056 2.70512 -1.13658e-19)
(6.28449 2.81236 5.28394e-19)
(2.31098 -0.986907 -1.3022e-17)
(6.18007 2.71589 1.46536e-18)
(5.78148 -3.64095 0)
(6.2544 2.93658 6.93675e-20)
(6.2138 3.04493 -5.58026e-20)
(6.90822 -4.13195 -5.73055e-19)
(5.11138 -0.40272 -1.12562e-18)
(6.32439 3.2099 0)
(6.2908 3.26761 -3.50911e-21)
(4.03741 0.223701 -1.26633e-18)
(3.49434 -2.72914 1.41956e-18)
(7.81364 0.544638 5.35419e-19)
(3.95813 1.94433 -2.41623e-20)
(5.87198 -4.20375 8.10656e-19)
(5.79967 -4.21282 -1.84295e-18)
(6.41215 2.53713 -3.06649e-20)
(6.27763 -0.534241 0)
(4.10636 -0.169918 -1.62414e-19)
(4.14198 -0.275983 0)
(4.08975 -0.260236 1.52382e-19)
(4.18475 1.44953 -1.74791e-18)
(6.38425 -1.63134 -1.38767e-19)
(6.49779 -1.5883 0)
(6.69453 -1.56641 1.2024e-20)
(6.70967 -1.48421 -2.81925e-20)
(7.25129 -1.52987 7.98709e-20)
(7.32535 -1.48006 -2.78877e-19)
(8.03003 -0.810179 -1.59005e-19)
(7.95217 -0.817824 1.58624e-19)
(8.05942 -0.713581 0)
(4.25801 0.650906 -4.4537e-21)
(4.20597 0.609554 -2.16413e-18)
(3.8221 0.431613 5.35739e-18)
(6.74145 -1.24201 7.01855e-21)
(6.71681 -1.33057 0)
(6.81634 -4.15831 3.13202e-19)
(6.8686 -4.14914 -3.00722e-19)
(6.27862 -4.03554 -3.96205e-18)
(6.31232 -4.08036 1.99428e-18)
(5.67483 -4.18824 -9.26689e-19)
(5.38938 -3.98454 -8.35864e-19)
(7.73567 0.820755 4.95847e-19)
(5.94007 -3.58635 -1.69882e-18)
(5.85457 -3.56887 1.50652e-18)
(6.58324 -0.644549 -3.71376e-17)
(6.61949 -0.729777 -2.57951e-17)
(3.8593 -2.71081 4.322e-20)
(3.78499 -2.70768 0)
(8.1781 -1.0477 8.15825e-19)