/*--------------------------------*- C++ -*----------------------------------*\
  =========                 |
  \\      /  F ield         | OpenFOAM: The Open Source CFD Toolbox
   \\    /   O peration     | Website:  https://openfoam.org
    \\  /    A nd           | Version:  6
     \\/     M anipulation  |
\*---------------------------------------------------------------------------*/
FoamFile
{
    version     2.0;
    format      ascii;
    class       volScalarField;
    location    "1700";
    object      nuTilda;
}
// * * * * * * * * * * * * * * * * * * * * * * * * * * * * * * * * * * * * * //

dimensions      [0 2 -1 0 0 0 0];

internalField   nonuniform List<scalar> 
29874
(
0.251569
0.207215
0.121572
0.155393
0.179057
0.241475
0.217079
0.141058
0.152903
0.141856
0.267958
0.257955
0.182003
0.262876
0.266106
0.283084
0.17519
0.277136
0.118827
0.141927
0.14066
0.143784
0.140536
0.153398
0.144482
0.177059
0.219878
0.143845
0.233391
0.233619
0.229579
0.195398
0.19501
0.220633
0.151482
0.158008
0.142248
0.162895
0.164079
0.20035
0.139905
0.139656
0.145186
0.133089
0.19135
0.160727
0.177976
0.244952
0.238967
0.239777
0.193752
0.291205
0.267483
0.27897
0.199579
0.192924
0.134864
0.169837
0.166089
0.172032
0.163764
0.149104
0.147478
0.16741
0.123467
0.189823
0.238423
0.176396
0.262153
0.283348
0.154935
0.148351
0.144379
0.109379
0.284859
0.23059
0.231983
0.226344
0.182946
0.164773
0.192345
0.109845
0.138327
0.146653
0.0954295
0.10938
0.148784
0.140871
0.188094
0.16326
0.0702512
0.139498
0.13862
0.145341
0.134831
0.138248
0.135942
0.0982667
0.0613158
0.100296
0.150876
0.138568
0.1388
0.1677
0.211668
0.0633793
0.0756263
0.154633
0.158887
0.144489
0.0748445
0.195902
0.205281
0.138528
0.138528
0.13879
0.134814
0.150754
0.000263175
0.142242
0.139785
0.178395
0.130166
0.114509
0.136957
0.138618
0.153171
0.146941
0.142075
0.135036
0.14001
0.137097
0.150508
0.143213
0.143571
0.14328
0.146254
0.134765
0.143811
0.233496
0.20024
0.171776
0.278075
0.169538
0.149491
0.152048
0.170742
0.182881
0.139763
0.276511
0.246802
0.240883
0.294359
0.119115
0.135503
0.140106
0.150241
0.162041
0.183728
0.185257
0.167008
0.181133
0.222258
0.163058
0.215968
0.190102
0.171875
0.150234
0.149358
0.154356
0.194015
0.173004
0.16444
0.0923391
0.0808679
0.155005
0.148103
0.000330315
0.147819
0.145036
0.000268965
0.000248262
0.160473
0.143088
0.140982
0.158864
0.138315
0.138658
0.140697
0.138614
0.138494
0.190392
0.144926
0.139455
0.17067
0.143272
0.141865
0.154942
0.00050093
0.000500279
0.152221
0.150758
0.176745
0.163713
0.141029
0.138947
0.140615
0.216567
0.146742
0.140038
0.142439
0.145684
0.133825
0.141683
0.142993
0.146181
0.145657
0.1426
0.146336
0.152966
0.235802
0.197361
0.197862
0.162336
0.139692
0.146
0.151421
0.149339
0.161392
0.139081
0.139977
0.140014
0.13796
0.129481
0.144516
0.146561
0.135288
0.170937
0.159483
0.195979
0.198641
0.00669891
0.0422042
0.102024
0.107639
0.0379807
0.0358731
0.0407312
0.131724
0.0454838
0.0824622
0.127019
0.0783764
0.0397896
0.103953
0.0515531
0.0420692
0.000530144
0.0444651
0.046563
0.030255
0.0403233
0.0419893
0.0396721
0.0425744
0.0393632
0.0411044
0.115535
0.111996
0.000340517
0.0428862
0.0406302
0.0959305
0.0691696
0.108546
0.0803143
0.0196151
0.000792751
0.104065
0.0600832
0.0586006
0.126631
0.126485
0.121956
0.121674
0.070809
0.125208
0.125365
0.0523955
0.055943
0.0848739
0.0887597
0.0901229
0.0406842
0.0423896
0.0469821
0.0478484
0.0252414
0.0864985
0.0890501
0.0985922
0.029397
0.117372
0.0287344
0.0918358
0.0895947
0.0457141
0.127727
0.0221253
0.00402134
0.0365427
0.0371342
0.021969
0.023842
0.0199642
0.0442628
0.0445353
0.0567858
0.114224
0.112058
0.0421343
0.0418899
0.0407748
0.0459341
0.110587
0.108537
0.11125
0.138261
0.0474311
0.0471521
0.136023
0.136476
0.0431004
0.0416679
0.03931
0.0322425
0.111399
0.112841
0.113004
0.111375
0.0413479
0.0173921
0.0442863
0.0481353
0.0463139
0.0460435
0.116354
0.116443
0.0402679
0.0909144
0.128261
0.12433
0.0508753
0.04332
0.0601738
0.105865
0.0530343
0.0534081
0.108355
0.000327071
0.0418127
0.0279716
0.0428104
0.0454267
0.0442684
0.0887088
0.0895941
0.0872852
0.132261
0.060665
0.0562369
0.0597888
0.0564887
0.139528
0.131318
0.0628851
0.0706278
0.0688286
0.0630244
0.0727518
0.0397326
0.0397578
0.120569
0.131297
0.110587
0.110508
0.115373
0.11361
0.115176
0.112367
0.0444969
0.0439174
0.0384301
0.0426237
0.043149
0.0380677
0.0374231
0.0387815
0.0364647
0.138063
0.0408392
0.0417021
0.0423616
0.126781
0.122684
0.130447
0.047814
0.0507187
0.0477748
0.0503022
0.0897438
0.0822353
0.0854811
0.0871431
0.136796
0.0179423
0.0225791
0.0416208
0.0378177
0.0457815
0.0454155
0.0428779
0.0817194
0.0698985
0.0864936
0.0829251
0.0811418
0.08871
0.0589572
0.0587983
0.0371031
0.0369148
0.0389366
0.0352961
0.0404528
0.0386575
0.0342922
0.0396246
0.0431395
0.0691696
0.076941
0.0710672
0.073934
0.0523525
0.0489514
0.139383
0.140171
0.138084
0.136782
0.140562
0.0520733
0.0553106
0.0493125
0.0796123
0.0901382
0.084562
0.0353034
0.0366144
0.037703
0.0346899
0.0441457
0.0432684
0.0440606
0.0429353
0.0423776
0.0420907
0.0406299
0.0777558
0.150992
0.144089
0.147636
0.14817
0.0660255
0.113604
0.105065
0.104037
0.107391
0.0487511
0.0449564
0.0524312
0.0704532
0.0611669
0.0674049
0.0647225
0.0634883
0.138174
0.0435305
0.0409784
0.0407324
0.043427
0.165908
0.000256117
0.137303
0.193921
0.000518116
0.138566
0.167994
0.13951
0.139501
0.139537
0.170271
0.117312
0.138033
0.13879
0.104064
0.134675
0.132918
0.138441
0.136612
0.118288
0.138489
0.13813
0.116344
0.138682
0.13844
0.00362085
0.139147
0.142233
0.000221333
0.13839
0.138794
0.140439
0.115252
0.140143
0.118141
0.11818
0.135158
0.139322
0.132129
0.134355
0.127196
0.152417
0.1287
0.124294
0.133859
0.129522
0.13882
0.130557
0.127539
0.121686
0.0963018
0.0949859
0.000227226
0.0053682
0.157575
0.16641
0.138515
0.102541
0.106189
0.139296
0.134025
0.139809
0.139602
0.138299
0.0438982
0.0537628
0.0544414
0.123645
0.139202
0.223967
0.126447
0.101427
0.0956976
0.0962118
0.138674
0.00907473
0.131305
0.132712
0.100638
0.106599
0.0391159
0.148847
0.140513
0.235275
0.203136
0.138314
0.138527
0.138477
0.0956334
0.158273
0.146405
0.128381
0.126567
0.145534
0.118761
0.12049
0.105351
0.139816
0.127204
0.137297
0.133839
0.158756
0.14771
0.0749016
0.0694392
0.118418
0.119874
0.143333
0.140225
0.000739523
0.149711
0.181872
0.142215
0.140345
0.13999
0.139296
0.139828
0.126753
0.13444
0.139213
0.0559162
0.0557951
0.0595791
0.139073
0.138174
0.138379
0.137976
0.139744
0.143375
0.147645
0.109934
0.0376866
0.139478
0.138108
0.145592
0.153685
0.0498665
0.0452461
0.121974
0.118918
0.16124
0.2188
0.159307
0.177565
0.0395743
0.0405852
0.110556
0.114378
0.11775
0.0851673
0.0913517
0.137811
0.137631
0.137358
0.170754
0.141028
0.13878
0.138709
0.133951
0.135742
0.139119
0.13859
0.13262
0.133062
0.130971
0.139744
0.137002
0.145785
0.149392
0.000442818
0.00427066
0.117565
0.113465
0.122379
0.0636728
0.0594066
0.168003
0.170256
0.158071
0.00576851
0.00677931
0.0771066
0.0267118
0.13566
0.0365743
0.0719831
0.0327703
0.0368636
0.0621571
0.0565001
0.0560837
0.0491111
0.0864117
0.0861684
0.0940392
0.0949241
0.0736687
0.0419941
0.0567073
0.0311059
0.0509958
0.0647258
0.0644176
0.0425063
0.0424443
0.0635511
0.0293781
0.00315816
0.0308102
0.00368419
0.00242619
0.0704088
0.0525314
0.0527505
0.0643177
0.022813
0.0524841
0.0249096
0.0585999
0.0262337
0.074051
0.0472052
0.0462897
0.0624082
0.0396357
0.0352946
0.0150509
0.01807
0.0626891
0.0288995
0.0616566
0.0635588
0.0928989
0.105714
0.0400567
0.0556905
0.0964507
0.0467894
0.0595967
0.0598172
0.0481115
0.0482103
0.0526029
0.0524293
0.0251905
0.0874824
0.0865537
0.0151627
0.0716283
0.0178847
0.00160769
0.0650935
0.0632349
0.0447889
0.00158773
0.00136592
0.0657882
0.0745339
0.0155962
0.00424023
0.0910527
0.091754
0.0560383
0.0401202
0.0403571
0.0899403
0.0638851
0.0480334
0.0386238
0.040371
0.0517264
0.0747078
0.0746401
0.021776
0.0197908
0.0314481
0.0311044
0.0544446
0.0601732
0.0473046
0.0501416
0.0361663
0.0585964
0.0067991
0.0540545
0.0570602
0.0567921
0.0605253
0.0422942
0.0666775
0.0404999
0.0434358
0.0701171
0.0445027
0.0430552
0.0728221
0.0487395
0.0481978
0.0761447
0.0384292
0.0278359
0.0268637
0.0569301
0.0575329
0.0814875
0.00972344
0.0365486
0.00143387
0.0258852
0.0884469
0.105022
0.0500311
0.0478408
0.0718016
0.0420783
0.0321129
0.0695434
0.00976027
0.0499612
0.0579195
0.0664297
0.118438
0.118353
0.0358239
0.0363379
0.0629456
0.0527426
0.0840169
0.0597508
0.0566915
0.0766057
0.0615902
0.0175187
0.0367136
0.0309984
0.0438941
0.0556413
0.057878
0.0616884
0.0625733
0.0126941
0.0144895
0.0625566
0.0304634
0.0309927
0.0449824
0.0432123
0.0736151
0.0608106
0.0597349
0.086117
0.0512649
0.0536773
0.0347549
0.0765969
0.0767082
0.0764444
0.0560341
0.0538488
0.0360189
0.0334454
0.105217
0.0568477
0.0569521
0.0339231
0.0326221
0.0320209
0.0430294
0.0699556
0.067006
0.0740329
0.0651435
0.0556303
0.0570689
0.0451598
0.051213
0.0883429
0.0566039
0.033941
0.0326117
0.0718198
0.0534688
0.0284393
0.127201
0.0427275
0.0411085
0.0252331
0.0278537
0.0243569
0.0603706
0.0563186
0.0195779
0.0846927
0.023677
0.0853808
0.0838022
0.0547639
0.052204
0.0457728
0.0467555
0.033652
0.0860428
0.0869548
0.0837925
0.0829743
0.0844458
0.0512455
0.0650936
0.0107815
0.0691448
0.0834549
0.0846249
0.0133069
0.0128377
0.0661426
0.0469587
0.074513
0.0821947
0.0689256
0.0749797
0.0356762
0.0926443
0.0796768
0.0146276
0.0517079
0.0637184
0.0955677
0.0950478
0.0948506
0.0629465
0.0561887
0.0200972
0.0597098
0.0611197
0.0449346
0.0403442
0.0372019
0.0281926
0.0261623
0.0605843
0.0313937
0.0327617
0.0186864
0.0196492
0.00540128
0.0382389
0.0380462
0.039831
0.024424
0.0565396
0.0562541
0.0652606
0.0359766
0.0389042
0.0372555
0.0670556
0.0503381
0.066484
0.0431072
0.0399025
0.126136
0.061233
0.0818439
0.0753371
0.0632994
0.0633267
0.064014
0.0496239
0.0199133
0.105745
0.100884
0.0153091
0.100529
0.0199269
0.0671699
0.0634325
0.0441918
0.0662424
0.0548538
0.0532794
0.0438947
0.0039544
0.0445494
0.0343627
0.012383
0.00951434
0.0780171
0.0679318
0.0461963
0.0470542
0.0458016
0.0457149
0.0647978
0.0638302
0.0619739
0.0618194
0.0537252
0.052439
0.0398045
0.0412282
0.0392001
0.0498676
0.0484554
0.0359756
0.061695
0.0618034
0.0406928
0.0424596
0.0292268
0.0292585
0.00558527
0.00437894
0.0460572
0.0263156
0.0236974
0.115621
0.109752
0.033228
0.031471
0.0362302
0.0332148
0.0301468
0.0432406
0.0366212
0.0403819
0.0445689
0.0313578
0.0962388
0.092017
0.101835
0.101235
0.100084
0.0544959
0.105991
0.103331
0.0619388
0.0515921
0.0186265
0.0197494
0.0157914
0.0777192
0.0433239
0.0369157
0.0582195
0.0383334
0.0762049
0.0766139
0.0762922
0.0451604
0.0513272
0.0520166
0.0496801
0.0482569
0.0592507
0.0593045
0.0615726
0.0548484
0.056164
0.0561994
0.0573765
0.0374912
0.0359885
0.0488236
0.0485505
0.0485743
0.0487481
0.0536581
0.0547329
0.053294
0.0888383
0.0533363
0.0673424
0.0521229
0.0367327
0.00109633
0.0470181
0.0322629
0.0313084
0.102036
0.100753
0.102487
0.0682265
0.0673193
0.0680147
0.0414093
0.0771479
0.07507
0.0783837
0.0818365
0.0814994
0.0803197
0.0802086
0.0510621
0.052094
0.0696079
0.0119023
0.0701871
0.0196054
0.0917454
0.0562829
0.0405269
0.122234
0.0171474
0.0569413
0.0570804
0.0477145
0.0449745
0.0433978
0.0461532
0.0867198
0.106449
0.103446
0.0890915
0.0852959
0.0603344
0.0612769
0.0577
0.0472435
0.0680141
0.0676783
0.0376707
0.0390663
0.0823832
0.0355578
0.0333938
0.0340832
0.0553646
0.0539104
0.0540933
0.00867116
0.0165007
0.000640854
0.0657895
0.0647827
0.101908
0.0794107
0.00077837
0.046138
0.0446603
0.0894611
0.048302
0.050253
0.0497127
0.0487706
0.064716
0.0660963
0.0611226
0.0619184
0.030112
0.0290443
0.0619188
0.00956365
0.0420989
0.0433636
0.000570624
0.066936
0.0665071
0.0671829
0.0625315
0.0317123
0.0300155
0.0324098
0.00737407
0.0196379
0.0185014
0.0647287
0.0639851
0.0778404
0.0939241
0.0937509
0.0931562
0.100677
0.0993412
0.0996707
0.0413257
0.0653346
0.0646827
0.0886029
0.0870518
0.0878039
0.000530892
0.0319605
0.0591957
0.0590961
0.103846
0.10205
0.102559
0.103384
0.0649327
0.0646739
0.0265168
0.0235124
0.10861
0.000949996
0.0742686
0.0733459
0.0463851
0.0468248
0.0454221
0.00102463
0.0936525
0.0887324
0.000457226
0.00078641
0.00180562
0.0765156
0.0764323
0.076241
0.051976
0.0359195
0.0385971
0.0962853
0.0726563
0.0516732
0.0517033
0.0508731
0.0634251
0.0630363
0.0346193
0.000670503
0.0995331
0.0456148
0.0459349
0.0443214
0.037942
0.0373492
0.0918674
0.0925081
0.0916911
0.0934735
0.0932327
0.0957541
0.0579393
0.000493607
0.0559502
0.0312278
0.106936
0.104139
0.020886
0.0192681
0.0393067
0.0398213
0.0692226
0.0630176
0.0633001
0.0621002
0.0603554
0.061122
0.026579
0.0236378
0.0559712
0.000676871
0.000402049
0.0496565
0.0368322
0.035722
0.014483
0.0148301
0.0552756
0.033777
0.0323175
0.0399516
0.106224
0.102505
0.0632368
0.0623581
0.0220115
0.0485678
0.0372226
0.0778075
0.077644
0.0594149
0.058757
0.0297891
0.0278096
0.000447482
0.000760313
0.0417333
0.0713244
0.0712275
0.000357839
0.0736875
0.0745649
0.0648492
0.0360496
0.0335007
0.0345233
0.0713856
0.0910568
0.0947627
0.0955793
0.0964741
0.0964268
0.0350275
0.0243486
0.0930999
0.0944345
0.0948874
0.0925468
0.0797454
0.0777613
0.10176
0.0633103
0.0606021
0.0597284
0.0741749
0.0948503
0.0963201
0.00120293
0.00260951
0.0454794
0.046462
0.0463836
0.045314
0.0461137
0.0480508
0.0691028
0.0695037
0.0581709
0.0506421
0.0513598
0.0408947
0.0378078
0.0398322
0.0385429
0.0652963
0.065855
0.0651258
0.0657553
0.0529992
0.054124
0.0532332
0.0538234
0.0363668
0.0372677
0.0381086
0.0357069
0.0280782
0.0304279
0.027721
0.000680423
0.00114858
0.0408263
0.0414125
0.0561314
0.054564
0.0553295
0.0554051
0.0268503
0.0307504
0.112702
0.114754
0.107949
0.038631
0.0901802
0.0924942
0.0459645
0.0458187
0.0462582
0.0457974
0.0675462
0.0676481
0.0751623
0.0742594
0.0850506
0.0860422
0.0485524
0.047163
0.0471625
0.0484637
0.0910847
0.0916056
0.0908459
0.0917745
0.0118979
0.020241
0.0877228
0.0896629
0.0894553
0.0877717
0.0880585
0.0452588
0.045289
0.0465333
0.00133386
0.0205096
0.0195091
0.0229387
0.0532457
0.0536122
0.0515316
0.0491704
0.0923526
0.0395579
0.0408312
0.0429449
0.0445429
0.0426722
0.0485903
0.0498809
0.0498584
0.0312586
0.0463385
0.0466329
0.0460836
0.0469881
0.0347517
0.0336339
0.0351677
0.0486754
0.0497855
0.0491089
0.0558852
0.0569654
0.0569944
0.0557179
0.0710627
0.0705229
0.0712952
0.11087
0.108052
0.109255
0.0662289
0.0907208
0.0907665
0.0911889
0.0903327
0.0449899
0.0448153
0.0441874
0.0455905
0.0348932
0.0388054
0.040349
0.0497365
0.0510408
0.0502867
0.00459381
0.00464223
0.04301
0.0384184
0.0129634
0.0154325
0.0433193
0.0420689
0.0445374
0.05695
0.0586567
0.0577218
0.0438561
0.0452878
0.137106
0.137336
0.0220448
0.0436232
0.0422973
0.0436206
0.0408591
0.0388542
0.0235635
0.0470803
0.0465012
0.0140546
0.0175126
0.0530156
0.0696253
0.0688727
0.0693285
0.0692079
0.00800497
0.00780073
0.044505
0.0423221
0.044258
0.0419069
0.0183906
0.0724364
0.0981626
0.00769734
0.060006
0.059105
0.0963518
0.098344
0.0968873
0.0503309
0.0459155
0.0516143
0.045264
0.0446776
0.083592
0.0802451
0.0815457
0.103421
0.105013
0.104597
0.103756
0.0671457
0.0683404
0.0678619
0.0127599
0.0124691
0.0514239
0.0506652
0.0503729
0.0949587
0.0986513
0.0659928
0.0659226
0.0663
0.0655714
0.0414147
0.038542
0.0395924
0.0401783
0.0320557
0.0413474
0.0403624
0.059057
0.0578957
0.0583323
0.0587128
0.0433711
0.04259
0.0435745
0.0422975
0.0757265
0.0760336
0.0760702
0.0556164
0.0553996
0.0567754
0.0585743
0.0588375
0.0592861
0.058133
0.0268193
0.0234527
0.0229792
0.0279985
0.0358456
0.0347798
0.03189
0.0321091
0.0596615
0.0605115
0.0602026
0.0474317
0.0459018
0.0413103
0.0395866
0.0403367
0.0405329
0.0083531
0.00645652
0.0823057
0.0796249
0.0806237
0.0812033
0.0846599
0.0862462
0.0822784
0.10379
0.118964
0.0869191
0.0890727
0.0534928
0.0525159
0.0526059
0.111309
0.107848
0.136514
0.0759491
0.0760209
0.0735974
0.0562412
0.0545504
0.0558013
0.0433706
0.0427563
0.0437503
0.0422671
0.0932951
0.0934629
0.0923263
0.0387624
0.0396465
0.0402619
0.0402587
0.0393182
0.0275442
0.029887
0.0296238
0.0457639
0.0477223
0.0469723
0.0464937
0.0430235
0.0410674
0.0424254
0.0922684
0.093178
0.0936617
0.0919129
0.0292011
0.0476882
0.0443397
0.0439775
0.0430221
0.0493846
0.0493329
0.0495827
0.0492588
0.0456315
0.0466791
0.0469478
0.0454787
0.0472169
0.0469037
0.0486209
0.011564
0.0101984
0.0118895
0.0640299
0.0641945
0.0631467
0.0638457
0.0630426
0.111882
0.111724
0.074601
0.0389945
0.0491885
0.0588883
0.0377733
0.0396065
0.0391177
0.0383729
0.0493629
0.0492987
0.0853415
0.0875538
0.0840519
0.0446319
0.0452277
0.0458533
0.0907592
0.0900162
0.0900829
0.090632
0.0425484
0.0420043
0.0437084
0.0407579
0.0176396
0.0144979
0.0160277
0.0895934
0.0885986
0.0892464
0.0679623
0.0674734
0.0920219
0.0919565
0.0264201
0.0236001
0.0242352
0.0320936
0.0308053
0.0316308
0.0857733
0.0573239
0.0587876
0.0581881
0.0579322
0.0375437
0.0403431
0.0638009
0.0638311
0.0639385
0.0605892
0.0476939
0.0480224
0.0475588
0.0634042
0.0637853
0.0631736
0.0400602
0.0411836
0.0401213
0.0410113
0.0323459
0.0329721
0.0393945
0.0410993
0.0413457
0.0625293
0.0627462
0.0618088
0.0857583
0.0853896
0.0849882
0.0335572
0.0350407
0.0357664
0.0331933
0.00709836
0.0084801
0.0536008
0.0346462
0.0300125
0.0328711
0.0899168
0.0893395
0.0923536
0.000862683
0.00857775
0.0564141
0.0570989
0.057415
0.0749406
0.0750993
0.0570683
0.0141344
0.0808422
0.0805624
0.0816874
0.0796462
0.117749
0.117215
0.119232
0.0463722
0.0444492
0.045549
0.0687517
0.0693455
0.0891352
0.086854
0.0874618
0.0886378
0.0541732
0.0532078
0.0550109
0.0937518
0.0934361
0.0944675
0.0928136
0.0302675
0.0302371
0.0317362
0.0292521
0.0576328
0.0595075
0.0575252
0.0579039
0.0590047
0.0177227
0.014334
0.0449188
0.0435306
0.0446083
0.0434883
0.0583114
0.0496178
0.0498808
0.0870029
0.100902
0.100687
0.10015
0.101588
0.0437926
0.0435726
0.0446005
0.00963577
0.00995879
0.0468154
0.0475954
0.0462794
0.0541037
0.0550745
0.053946
0.0551107
0.0728176
0.0721334
0.0880064
0.097137
0.0923941
0.099689
0.0991208
0.0985225
0.044781
0.0466355
0.0457827
0.0456708
0.0502716
0.0498234
0.0648996
0.0483669
0.0471298
0.0480935
0.0474904
0.118655
0.117803
0.0330534
0.0323787
0.054411
0.0552573
0.0553261
0.0542669
0.0673374
0.0666782
0.0669978
0.0670379
0.119654
0.08995
0.0895008
0.0408565
0.0427094
0.0422569
0.0408929
0.0352903
0.0367117
0.0628787
0.107894
0.106442
0.109066
0.0586955
0.0576811
0.0582367
0.0581698
0.0348948
0.0384783
0.0361232
0.0238179
0.0210987
0.0431299
0.0451408
0.0449241
0.0439051
0.0172145
0.00406412
0.090757
0.0912241
0.0252049
0.0914286
0.090355
0.0408394
0.0978989
0.100392
0.0765376
0.0794721
0.0489828
0.0448848
0.0812836
0.046999
0.046513
0.047258
0.0732636
0.0467312
0.0446313
0.0459401
0.0487999
0.0476049
0.0486836
0.0476085
0.123187
0.12441
0.0344855
0.0371313
0.0374696
0.0381509
0.0363791
0.0330008
0.0339371
0.0325238
0.0345236
0.138751
0.0922786
0.0905836
0.0923257
0.0903237
0.052585
0.0333618
0.029355
0.0318429
0.0313534
0.0354898
0.03537
0.0369856
0.0339646
0.138
0.138185
0.0597445
0.0605455
0.0608846
0.01207
0.0107765
0.0321411
0.0535763
0.0524015
0.0524081
0.0534674
0.0592118
0.059905
0.0111036
0.041893
0.0268444
0.0243578
0.0264662
0.0240805
0.0426515
0.0413122
0.0435993
0.000383046
0.0658046
0.0660771
0.0651724
0.108441
0.0986086
0.0711519
0.048861
0.0575725
0.0586842
0.0574337
0.0953507
0.0960416
0.0504011
0.0518824
0.0506559
0.0562634
0.0410503
0.0418712
0.0402845
0.0594633
0.0602104
0.0592477
0.120513
0.115161
0.113506
0.113808
0.114925
0.048714
0.0470844
0.0496868
0.0464182
0.000139389
0.0518201
0.0531993
0.0530281
0.0678437
0.0661406
0.0706963
0.0334037
0.00594646
0.0960342
0.0448394
0.0453943
0.0648272
0.0649527
0.0252344
0.0260522
0.0248014
0.103865
0.104759
0.103233
0.105317
0.108904
0.0587194
0.0597312
0.0595233
0.0588752
0.084225
0.0832396
0.05834
0.0574485
0.0972422
0.0961672
0.0967514
0.0965136
0.027681
0.0300316
0.0284051
0.0345748
0.0348582
0.0339111
0.0354854
0.0454618
0.0444048
0.044288
0.0452185
0.0230601
0.0469475
0.0457176
0.0461703
0.0103578
0.0469143
0.0435746
0.0457177
0.0444832
0.0309056
0.0331448
0.0309748
0.0921278
0.0915864
0.0920272
0.0802918
0.0802931
0.0334818
0.0343319
0.03173
0.0357139
0.062785
0.0621458
0.0627549
0.0621154
0.0608665
0.0598836
0.0603956
0.0603641
0.0894371
0.0890056
0.0896485
0.0887592
0.00388706
0.0039239
0.00411367
0.0124991
0.0518977
0.0494857
0.0434678
0.0420059
0.0425523
0.0429441
0.0401552
0.10891
0.10847
0.107755
0.109784
0.0720636
0.135778
0.134803
0.13508
0.13524
0.0469324
0.0478661
0.0469923
0.0129394
0.0330535
0.035193
0.0703602
0.0708193
0.0700051
0.089929
0.0897827
0.0897015
0.000188646
0.036395
0.0361009
0.0355045
0.0641873
0.0493299
0.0496847
0.0491876
0.0412165
0.0418247
0.0421477
0.0503387
0.0575455
0.0585485
0.0575337
0.0584495
0.000455856
0.0394102
0.0372666
0.0388439
0.0365767
0.0708177
0.0677883
0.0724024
0.0485717
0.0496878
0.0432997
0.0420616
0.0396602
0.0619493
0.0611589
0.0612913
0.0617855
0.114274
0.0420331
0.0427738
0.000669399
0.121432
0.121118
0.0876805
0.0874682
0.0869675
0.0881754
0.0576731
0.0526899
0.0565338
0.0545559
0.0371463
0.0387522
0.13328
0.0555581
0.057023
0.0562753
0.0562972
0.0467807
0.0473102
0.0436992
0.0449981
0.0302099
0.0273564
0.0396833
0.041177
0.0402726
0.0406463
0.00114182
0.0312668
0.0311786
0.030063
0.0324082
0.0646602
0.0648434
0.0649049
0.0188447
0.0166947
0.0517764
0.0515821
0.071722
0.0483793
0.0492695
0.137179
0.0746288
0.0870398
0.0862996
0.0873968
0.0858278
0.133058
0.138187
0.0252547
0.0102533
0.0100117
0.0195418
0.0301913
0.00577045
0.0112685
0.0115595
0.0147959
0.0602584
0.0366109
0.1386
0.00958735
0.0099588
0.00574493
0.00510733
0.138589
0.138428
0.138451
0.138264
0.00896389
0.0425403
0.0419896
0.122322
0.117856
0.127629
0.125533
0.0752647
0.0783727
0.0140686
0.00790453
0.000327452
0.0571542
0.000997686
0.0191009
0.000595508
0.0079038
0.00978021
0.130827
0.0809425
0.030843
0.022578
0.0250537
0.000391024
0.139165
0.00500979
0.00492212
0.00581448
0.0583878
0.0047204
0.149166
0.144553
0.00731719
0.137977
0.00019157
0.0255841
0.0240266
0.0119098
0.014441
0.0151819
0.120803
0.0595005
0.0224682
0.137285
0.137394
0.0313729
0.0248391
0.0226674
0.0523804
0.0860689
0.135777
0.136389
0.0236579
0.0226283
0.129592
0.00842824
0.00167324
0.000334686
0.120358
0.118646
0.00113797
0.00548235
0.0221124
0.000958721
0.000420452
0.00423411
0.121482
0.114871
0.118188
0.117893
0.0030622
0.0298378
0.00646811
0.000241436
0.0229572
0.1142
0.117984
0.0272052
0.0064569
0.00358457
0.00329412
0.130515
0.0411543
0.132094
0.129616
0.130962
0.167928
0.015169
0.0709521
0.00421077
0.00523185
0.000975282
0.11276
0.00670329
0.036068
0.0124515
0.0264223
0.0247878
0.0246054
0.0346164
0.0209152
0.0217373
0.0220132
0.0177762
0.0248063
0.0268862
0.00869659
0.0089413
0.00197614
0.00349089
0.0214723
0.018909
0.0165167
0.00436413
0.00502895
0.0302701
0.0319873
0.0212455
0.0201743
0.0211156
0.00219999
0.00618265
0.0149274
0.000982687
0.000347034
0.000531153
0.0168594
0.000658763
0.000853961
0.00034448
0.000523574
0.00857657
0.00114544
0.0430141
0.0184389
0.0308272
0.0268552
0.00565221
0.00705024
0.034076
0.0330128
0.0717075
0.0190176
0.110839
0.0326703
0.0615832
0.000709717
0.00613218
0.132888
0.00427504
0.0974077
0.0801155
0.133085
0.132247
0.031148
0.0110225
0.138336
0.123219
0.124262
0.0161061
0.0469562
0.0463946
0.132054
0.00432341
0.00515174
0.00330764
0.00555635
0.0060766
0.00552249
0.00968452
0.00429898
0.129856
0.0336488
0.00461453
0.00606442
0.00563598
0.00747326
0.028605
0.0279921
0.0476442
0.110569
0.00840299
0.000186807
0.137809
0.137668
0.0233012
0.0223366
0.0298263
0.0286373
0.0188478
0.0796925
0.023917
0.00877526
0.00140524
0.00784295
0.0306056
0.0278472
0.097819
0.0849326
0.0028507
0.00307628
0.134226
0.0392919
0.0282368
0.0279794
0.0284297
0.00653976
0.0520054
0.137964
0.0166145
0.0177464
0.0154052
0.136519
0.136859
0.0248285
0.0215515
0.00706101
0.0434678
0.0487493
0.0219785
0.0198439
0.0079739
0.00898324
0.135057
0.136273
0.0675665
0.150681
0.143865
0.138583
0.138408
0.0136707
0.112124
0.00759348
0.00493567
0.0412068
0.00801184
0.00647227
0.00676176
0.0148557
0.0983164
0.00865798
0.00974261
0.0237206
0.00534289
0.00564204
0.128763
0.00764158
0.033318
0.0073723
0.0604532
0.136844
0.136935
0.00212592
0.11472
0.000843524
0.0198238
0.0564719
0.057501
0.0477347
0.0332701
0.0328268
0.0113168
0.0121956
0.0160432
0.038123
0.0244922
0.22823
0.185016
0.000477445
0.0389911
0.0390827
0.0376725
0.037711
0.0086055
0.00340916
0.0500531
0.040174
0.0402098
0.0408044
0.0394846
0.0268957
0.0111092
0.115548
0.122026
0.12521
0.138027
0.138112
0.0249719
0.0347916
0.0248016
0.0262597
0.0275511
0.0992971
0.0927735
0.107235
0.0295368
0.0249826
0.0250907
0.112533
0.0249512
0.0651323
0.0670263
0.0690818
0.0358277
0.0289624
0.0576987
0.0568953
0.104167
0.138418
0.111189
0.109014
0.130611
0.107847
0.0113138
0.0156388
0.0112787
0.119609
0.11812
0.128329
0.00820883
0.00946043
0.0643002
0.0371859
0.0353569
0.0219738
0.0200736
0.0469906
0.0471981
0.0484591
0.0274278
0.0157866
0.0305378
0.0298694
0.0170034
0.0208013
0.136781
0.13717
0.136767
0.137166
0.0147054
0.014434
0.11572
0.0191125
0.0186636
0.031433
0.0284834
0.0282104
0.0319629
0.034829
0.0343452
0.137842
0.136159
0.1356
0.0975003
0.0815386
0.0480628
0.136309
0.0167745
0.0150268
0.0118943
0.102338
0.275743
0.214165
0.240134
0.0403755
0.0392679
0.0870664
0.034492
0.0337111
0.0305187
0.00141089
0.21416
0.0116782
0.0341357
0.0367844
0.0357764
0.0346005
0.00248034
0.13608
0.136637
0.0105734
0.0290331
0.117305
0.138858
0.138911
0.106075
0.10531
0.000284935
0.030964
0.0568346
0.0427566
0.0435767
0.0437038
0.000399108
0.115053
0.116678
0.113528
0.137246
0.136862
0.0269733
0.0274456
0.0290884
0.0162802
0.0271135
0.0427424
0.0432107
0.0421216
0.0946778
0.000686951
0.109947
0.106692
0.016885
0.00219185
0.104678
0.109859
0.122142
0.118213
0.0414183
0.0408861
0.0208921
0.133381
0.0346914
0.0337016
0.0354847
0.0352268
0.196735
0.186383
0.0371966
0.0362286
0.0349341
0.00813715
0.0102726
0.0105494
0.011925
0.0128612
0.0242732
0.0154918
0.0390729
0.038232
0.0390329
0.117258
0.120047
0.00171556
0.03786
0.0475129
0.0480152
0.0491812
0.0369382
0.0412077
0.0575721
0.138456
0.0126596
0.037177
0.040409
0.0393662
0.122636
0.12219
0.0134601
0.13516
0.023506
0.00888658
0.0526301
0.053964
0.0546227
0.0417325
0.0412449
0.0960028
0.101532
0.0310815
0.0295239
0.021241
0.0223171
0.0285453
0.0255357
0.0166601
0.0133679
0.0156966
0.0315892
0.041061
0.0202147
0.00301295
0.106785
0.0326159
0.0322995
0.0334292
0.0110636
0.0194425
0.124873
0.123756
0.0838124
0.0843344
0.0835217
0.015525
0.0453805
0.00631302
0.000950187
0.138799
0.0504735
0.0236253
0.0223205
0.023979
0.0491903
0.0358983
0.000517919
0.140489
0.0404647
0.073967
0.0196346
0.0255486
0.0660993
0.0298708
0.0286097
0.0103074
0.0558896
0.0352186
0.00447188
0.112932
0.103781
0.0987569
0.0995137
0.096043
0.00147183
0.00372933
0.0373158
0.0116929
0.0502881
0.0544549
0.0441784
0.044422
0.0343275
0.0349033
0.0389573
0.0186136
0.0193543
0.112302
0.108103
0.138877
0.13881
0.0929021
0.0911836
0.00582846
0.0369741
0.034928
0.0199412
0.0208908
0.0695534
0.0673575
0.00428968
0.0175378
0.014576
0.0431777
0.0461374
0.120364
0.117747
0.0963585
0.138514
0.138399
0.0325815
0.0319622
0.0432501
0.0425253
0.0227808
0.0207895
0.104913
0.018353
0.0198726
0.0442694
0.0455035
0.0462953
0.0457508
0.049203
0.0481276
0.0838781
0.0834114
0.0821517
0.0634097
0.0639464
0.0642792
0.0420042
0.0423372
0.126613
0.134706
0.135303
0.0157969
0.00924568
0.129779
0.127375
0.0433919
0.0429612
0.0444339
0.0441897
0.061062
0.136291
0.144684
0.00200481
0.0354392
0.0363183
0.0399235
0.11754
0.0363848
0.139072
0.14061
0.0690891
0.0343874
0.0358521
0.0927285
0.0939916
0.0901012
0.089011
0.0963185
0.094873
0.00753201
0.0065059
0.0597505
0.0570589
0.139267
0.139209
0.139361
0.116219
0.0397638
0.116255
0.0578245
0.0625572
0.07274
0.0697945
0.0128769
0.0417615
0.040745
0.106527
0.10801
0.02783
0.118889
0.0265571
0.0166744
0.138425
0.138233
0.102975
0.0626644
0.0614232
0.061624
0.0620599
0.0140744
0.0156301
0.114451
0.0346467
0.0360496
0.0436975
0.154661
0.1662
0.0465799
0.137935
0.137606
0.0247928
0.0280446
0.138522
0.05917
0.0602904
0.0597908
0.0360616
0.0366742
0.0612401
0.0651883
0.0415
0.0402552
0.134592
0.00361636
0.0479851
0.0484601
0.0470839
0.0466148
0.0345176
0.11247
0.108305
0.104571
0.0738829
0.0705611
0.0725361
0.121722
0.117168
0.112482
0.0694691
0.0706612
0.0701152
0.133403
0.13467
0.134175
0.0890879
0.0760018
0.0479834
0.0488174
0.0134736
0.0122054
0.0138719
0.116349
0.102436
0.108812
0.113899
0.0420078
0.138805
0.130737
0.128688
0.0152254
0.0169392
0.043775
0.0448621
0.0918822
0.0909807
0.0900451
0.121934
0.124316
0.118001
0.0714554
0.0832654
0.0845556
0.123981
0.12482
0.125855
0.0427992
0.0412657
0.136914
0.137257
0.137439
0.0428239
0.0413589
0.0407618
0.129098
0.130126
0.0475669
0.0479164
0.00551525
0.0438595
0.0435934
0.0407056
0.040878
0.0181663
0.019492
0.0390548
0.0403872
0.0401285
0.0713999
0.202137
0.256477
0.0294556
0.00307847
0.0680927
0.000779886
0.0874362
0.0883836
0.0390935
0.0134791
0.133105
0.138089
0.138166
0.122859
0.123882
0.0342464
0.0335947
0.138551
0.0764906
0.076161
0.0048949
0.13637
0.137315
0.137706
0.063379
0.06265
0.131982
0.107357
0.105314
0.126944
0.12313
0.131365
0.131505
0.0370806
0.0373678
0.0854627
0.0874546
0.0111552
0.0967066
0.101508
0.180951
0.153175
0.0978172
0.097808
0.118099
0.111692
0.0737012
0.0737508
0.155001
0.141751
0.141808
0.0321006
0.031478
0.0320718
0.0458686
0.0459178
0.0146711
0.135046
0.140834
0.127538
0.0508789
0.046435
0.0769958
0.076744
0.116957
0.116763
0.118516
0.0254053
0.0270466
0.0793715
0.0802344
0.100509
0.102565
0.0348496
0.0383409
0.0467835
0.0462231
0.0200131
0.0205583
0.0217288
0.107795
0.112253
0.106848
0.0261801
0.0427132
0.0422673
0.0424239
0.0371119
0.0374631
0.0364323
0.0435408
0.0453428
0.151462
0.0378246
0.0412889
0.0495809
0.0500221
0.0742014
0.0743139
0.0752527
0.0798695
0.0775003
0.0754104
0.0492185
0.0481614
0.040928
0.0420963
0.0384463
0.0399286
0.0405869
0.0389265
0.0407298
0.0115668
0.0272818
0.02863
0.0258237
0.0233494
0.0258933
0.00071872
0.13735
0.1365
0.135719
0.138234