/*--------------------------------*- C++ -*----------------------------------*\
  =========                 |
  \\      /  F ield         | OpenFOAM: The Open Source CFD Toolbox
   \\    /   O peration     | Website:  https://openfoam.org
    \\  /    A nd           | Version:  6
     \\/     M anipulation  |
\*---------------------------------------------------------------------------*/
FoamFile
{
    version     2.0;
    format      ascii;
    class       volScalarField;
    location    "1700";
    object      p;
}
// * * * * * * * * * * * * * * * * * * * * * * * * * * * * * * * * * * * * * //

dimensions      [0 2 -2 0 0 0 0];

internalField   nonuniform List<scalar> 
29874
(
2.94298
0.175595
0.114971
-2.98696
0.18269
-4.53439
-1.1716
0.676317
2.50951
0.530437
-2.41392
-0.0378782
-2.01275
-0.279493
-2.16819
-4.36303
-2.95874
-3.27239
0.330545
-0.0566965
3.17333
-1.86546
1.16273
0.839953
3.77822
-0.69472
-2.11737
0.18714
0.457384
-2.70771
-2.54961
-3.69621
-0.60226
0.974963
2.80705
1.37171
2.78541
-1.79414
1.3926
-1.09271
0.945955
1.11809
1.37198
3.16875
-2.46306
1.71553
0.987091
-0.829647
-2.92857
4.18486
-0.367956
-2.48262
-4.11347
2.56711
-0.311745
-0.798865
-0.71952
0.803198
1.74063
-2.29568
-0.745675
2.12316
1.46066
6.10032
0.229803
0.932677
0.307279
1.12914
0.627651
0.558717
-2.04646
-1.56479
7.55336
0.470038
1.24598
-2.63884
-0.938543
-2.37862
4.5204
2.55417
-3.37873
-0.252398
0.960928
-1.60532
14.4785
12.2745
0.425327
0.228645
-1.78217
-0.993586
18.175
1.11686
1.18122
-0.598087
0.155694
2.90448
0.539549
14.2934
19.5671
-0.279557
-0.365104
0.453202
0.896968
4.61537
6.32098
19.4066
17.5634
0.177571
0.688864
0.341676
17.8455
-1.61899
-1.77479
1.06321
0.968029
0.968354
1.97649
1.61106
24.3266
1.62775
1.30696
-3.48897
-0.0445097
-0.115155
-0.128468
3.29426
-1.23957
1.253
1.61823
3.81671
0.676513
2.95616
2.52696
1.09918
0.719177
1.49482
0.980822
-0.181366
-1.71482
3.48427
0.990459
1.5253
-0.576374
5.53537
0.881235
2.8438
-1.28666
2.01376
0.52852
1.81936
-2.16446
-0.852802
-3.33715
-0.222068
-0.609668
1.10288
3.76883
-2.1769
-1.78891
-1.93907
-1.49003
4.34478
7.14564
0.856922
0.649126
0.961437
0.545097
3.31805
3.87169
1.02678
0.776129
0.633116
0.850719
15.7057
16.9844
0.777299
0.522303
23.8655
3.79252
3.88073
23.6669
23.6753
-1.51472
3.27231
4.13458
-4.55752
0.384251
0.452288
-0.231468
0.878947
0.89367
-4.85829
3.36482
3.49082
3.22384
1.72238
1.41001
-0.510506
23.5246
23.6243
-1.62541
-5.57266
3.26178
2.76437
2.18131
2.69137
2.19825
-6.2353
2.11544
2.2291
2.01739
0.46713
5.02599
3.33587
-1.44297
1.41519
0.662941
0.48408
0.503523
0.71476
-0.977908
-4.65239
-0.384938
2.13591
0.753951
0.458122
-0.391477
-0.206626
-0.646124
0.735323
0.766818
0.710967
0.0064642
-0.522578
3.31772
3.45104
4.33385
-0.598082
0.388917
-0.612397
-1.80475
22.258
21.576
3.682
2.70701
21.0038
21.2573
-10.509
2.51625
-7.21248
16.0371
1.94497
-9.51144
18.5064
0.230024
20.6308
17.2949
23.246
-7.57526
17.4818
-3.75594
18.5706
17.1039
-4.0407
-5.36177
-6.81339
-7.1585
3.07536
3.20302
24.6394
20.4829
20.8569
-6.77018
-8.20842
-0.417833
2.70107
-5.83898
22.2762
3.93098
-0.578653
-1.6191
0.0699657
0.550682
2.1643
1.89598
3.06925
1.06463
0.665413
20.3841
20.1454
4.03056
2.63811
2.76705
-8.99885
-8.91097
17.2859
17.3006
-4.6821
-8.78315
-8.59736
-8.13742
18.0945
3.08556
19.3519
2.87398
2.95731
20.2033
2.13497
-4.72408
23.2055
-9.16191
-9.07842
-5.09469
-5.55715
-5.26144
17.8012
17.7803
-4.53134
3.43743
3.50551
-6.01514
-10.8169
20.1358
21.3524
3.80118
3.82234
4.13193
-0.651006
17.4885
17.2726
3.37736
2.77495
17.6075
17.523
-9.07089
-5.57833
2.81205
2.34643
2.35621
2.28113
21.0284
-4.95163
21.4092
21.0766
21.1722
21.2686
2.04551
2.38917
-9.88917
2.74745
1.92463
-3.1354
-9.87385
-9.15837
-9.17259
0.439395
20.6692
20.3111
8.45806
24.6633
-4.26851
20.8441
-6.83768
21.2476
21.3049
2.63639
2.71283
2.42001
5.99757
20.0885
20.3667
19.4723
20.0402
0.812559
0.672049
19.6696
18.5069
18.3379
18.7258
18.0078
21.1913
21.5806
3.33466
3.13786
3.13608
2.94794
-2.73153
2.10686
2.00354
1.78291
-7.46075
-8.65663
21.9609
-6.23346
-5.46863
-9.78634
-9.29621
-9.85892
-9.90862
2.78681
-6.41123
-6.94734
-6.47466
4.5114
4.49038
4.0015
21.2606
20.9548
20.8358
20.7602
15.597
16.8621
16.0751
15.7205
1.65924
17.7879
17.4526
19.0771
19.6008
21.031
21.2747
21.5494
16.6995
17.7638
15.7353
16.7211
17.7064
16.2737
-1.199
-0.693496
-5.15489
-5.86916
-6.00366
-5.36178
17.7436
-4.12062
-3.79397
16.8157
17.252
18.9336
18.2011
18.0695
17.6664
19.6478
19.6927
1.57599
4.23869
4.31487
4.57606
3.55372
19.8917
19.7007
20.6186
15.1594
14.5969
15.1552
-6.45553
-6.05983
-6.50402
-5.98095
-6.8394
-5.73224
-7.30999
-6.55177
17.9081
17.6144
18.018
2.48128
1.07051
0.956142
1.01765
0.898581
0.592037
11.5389
3.77924
3.64409
3.56625
19.3236
19.6164
18.7877
-6.09444
19.6714
18.5603
18.8849
18.9028
1.05285
21.1865
21.5265
21.3559
20.7698
-2.11841
24.6131
-4.95274
-2.44727
23.8613
-0.579257
-2.48344
0.526782
0.60199
0.615533
-2.81863
-0.895341
2.53173
2.21917
-0.332897
5.51412
6.07441
4.20701
4.56207
-2.10047
1.41125
1.52659
10.6053
0.954436
1.03798
22.8449
0.534338
-4.28726
23.9099
-0.31666
0.904602
-1.22513
10.468
-1.76957
-1.68461
-1.91714
1.04293
0.544402
-2.00077
-2.16205
-2.15002
-2.03914
3.58677
3.68989
0.299454
0.394836
-0.482602
4.96854
2.76549
2.84779
-0.20604
-0.266397
24.0642
22.6619
-1.32413
-1.28408
-1.93635
-0.134029
0.163466
3.1759
-3.88364
0.706542
0.804133
-0.189864
-7.89472
-8.67938
-7.02572
9.18161
0.586822
-4.29603
-2.4303
-0.393302
-0.391671
-0.308185
-0.725272
22.7822
-3.05327
-2.74552
13.9772
13.1871
21.5693
-4.08038
-0.787624
-6.80047
-4.52566
-1.2705
-0.996478
1.13861
13.8158
-4.62564
-5.29702
7.44817
8.43217
-0.534623
2.62336
2.61337
-0.580247
0.583829
1.0301
0.851013
1.06456
-5.01967
-5.63111
17.6491
17.992
2.31306
1.91356
3.85895
4.24461
24.1338
0.167676
-4.10426
1.96341
2.12335
2.3312
0.530713
0.593102
1.49818
1.512
1.39095
18.7004
19.1662
18.7696
1.84154
1.88156
1.74126
2.06458
-5.71685
-5.16528
-4.94153
-0.439196
20.8138
3.82985
3.65077
3.37657
3.71639
18.1057
19.0905
9.24615
10.2239
3.18034
0.00995558
2.8011
2.35574
-9.33636
-10.0159
12.346
11.5578
10.7518
16.4065
15.7986
1.71337
1.80156
1.97594
-2.48449
1.39805
1.07396
4.38925
5.16282
4.7936
-0.843447
-1.00626
6.03216
6.08112
6.71415
0.816549
-3.38328
-3.2335
-3.02623
24.6324
22.8414
0.134405
0.272576
0.568805
18.9289
19.1378
-0.920355
-1.37305
-0.566787
-24.3185
-23.4036
6.47109
-10.0991
2.90009
19.0684
3.12008
21.6302
19.1528
1.36672
5.89188
5.25502
-11.7203
3.06341
2.96777
3.68781
3.83651
5.86875
-7.79433
-2.91933
17.749
16.7148
3.288
2.94171
-11.7515
-11.8383
-0.160103
-12.6983
23.6572
22.416
20.9771
21.2173
0.239686
-4.01355
-3.57789
13.1214
17.9493
-3.71758
22.9207
-2.18242
19.2842
5.97053
16.5984
16.8305
-0.759127
-8.8781
-11.1525
16.1695
16.5425
-0.107945
-13.6094
1.68314
2.3067
2.87464
2.63619
-8.621
-2.72931
2.59684
0.501956
-1.00625
-1.22244
-11.3705
-11.1863
-3.77265
-3.42293
-15.1055
3.46658
3.27532
-18.5789
3.27045
-7.5227
-35.374
3.09829
1.2305
-6.70587
-35.1041
-28.6914
3.59136
-16.1802
-19.2595
18.8572
5.85578
6.09098
-2.82087
18.3714
18.1706
3.05726
2.34499
14.8728
21.8382
21.6146
-4.23124
5.29886
5.08621
-9.29389
-8.99714
-12.4984
-12.0696
-3.33883
-0.383886
15.819
15.7762
-6.20426
-1.27461
-4.93585
0.0685138
-0.158337
15.4896
14.4485
-8.07133
2.23451
-8.52289
-7.21066
3.41745
16.8213
16.977
4.39812
-5.27402
-11.497
8.65748
-13.5935
-10.7153
-10.7716
15.5188
15.5576
-15.4257
-25.465
-12.7337
14.6661
-18.2284
5.37757
3.0793
-4.62642
-5.79575
4.12692
18.266
14.9991
1.88447
-24.7708
-5.09628
-1.18785
1.8659
4.10246
4.33481
-10.4743
-10.3363
3.64553
16.2087
2.16744
-0.452282
-2.65794
6.47276
-0.313771
22.1622
19.1546
-11.4831
-7.42828
-2.85884
-2.03133
14.632
13.6728
-0.990241
-1.75796
1.52945
-12.6031
-12.6501
-11.8139
-11.8044
0.424485
-0.711152
-0.903699
2.35769
-4.69641
-3.65923
-6.24546
8.13548
7.30749
6.74777
-2.64231
-3.36198
-13.7457
-14.0215
4.17777
-1.91344
-1.77232
21.4257
21.7042
21.4663
-10.9486
6.51817
4.29325
7.60598
5.41126
15.2727
15.194
-10.0329
-4.07494
3.17158
-3.25796
-11.5245
-12.4069
5.91847
-4.39611
-11.1641
2.93659
-7.59521
-8.15929
-9.26854
-9.83973
-16.6293
14.5428
15.5453
15.8894
2.56213
-10.3253
2.6092
2.07654
5.6943
6.75232
-6.65419
-6.70595
-10.9899
2.74331
2.96636
2.29634
2.16238
2.39887
-4.33197
12.9799
-24.1088
0.0773415
2.12689
2.31589
-7.33625
-7.44285
1.14835
17.0287
-11.1082
-12.0899
-11.7175
5.08326
19.2155
4.04931
1.4493
-22.5903
15.5508
13.4675
3.94202
3.84301
4.0408
1.08468
-2.18002
-20.3328
-0.430631
0.45969
-6.57594
-11.0654
-10.9022
-2.38838
-17.0949
-1.47187
-11.2014
-12.8299
17.102
16.7614
23.8811
-10.9225
-10.6741
-10.8823
22.0381
15.1774
14.9624
3.20773
-10.8496
-9.76022
-10.5833
4.00005
-4.5627
5.8718
20.8354
-11.4608
3.09297
-0.467094
4.05585
3.64227
1.72616
1.89164
2.21383
-11.9098
20.8898
0.847225
1.41235
23.5885
2.47605
-3.7445
0.992457
0.899876
-11.5482
12.3894
-0.333581
-0.432386
17.9335
-4.53634
-7.04526
16.5872
-6.25455
-5.7135
1.26439
4.81004
17.4768
17.33
17.8107
15.9227
2.99915
1.95438
0.591383
0.724332
-3.66177
-4.30698
-9.4664
-8.30514
-9.35287
16.5301
16.7877
19.0663
0.565946
0.845335
-11.444
-11.6222
-8.1648
-8.48755
-5.05941
-4.51524
-6.13509
-4.46047
-3.87343
3.563
3.09727
15.8247
16.3826
-11.0544
22.2755
17.5974
17.2336
-12.5408
-11.9169
-10.8352
-12.7657
4.20871
3.22958
3.43808
3.43021
3.32897
-8.33147
2.76138
3.1447
3.53152
-4.30054
-4.01066
-4.42367
-3.90412
2.17351
-12.4321
-11.6115
3.47815
17.6025
5.28268
5.90578
5.56074
17.3188
15.5088
15.5313
16.7245
16.9951
-0.743561
-0.291025
-1.03233
-2.8806
-2.30816
-2.50915
-2.29398
18.9976
19.2563
-11.7904
-11.6384
-11.4454
-11.6114
-3.33292
-2.35371
-3.09816
3.00946
-3.25595
4.51077
15.6283
-9.88474
18.4315
-11.3182
16.9211
16.9017
3.24593
3.2908
3.32997
1.76504
1.61484
2.13161
21.3681
1.79601
1.68245
1.88838
1.71525
1.77877
1.70815
1.49688
-4.82684
-4.34001
6.11255
23.407
4.04968
-6.94805
4.8833
15.5881
-8.34197
3.654
-18.5123
-1.82856
-1.74696
-14.993
16.026
15.9137
15.9665
2.4556
2.28475
2.76209
2.98602
2.50679
1.02865
0.885416
0.859215
15.985
5.49255
5.00934
-10.148
-9.35143
1.88082
-11.0004
-11.7962
-11.1408
-2.70845
-3.37762
-2.66903
22.0242
-18.1988
23.067
3.53752
2.85496
3.19635
1.51086
21.7882
17.6672
17.8761
3.34347
17.4011
16.8858
16.5595
16.8449
0.475847
1.04625
14.1465
14.0121
-10.7041
-10.8035
-0.400555
-3.20668
-8.1022
-7.11736
23.3724
4.48281
4.05531
4.58782
1.28577
-12.8256
-13.0933
-12.3333
-6.21877
-9.71476
-9.59576
1.17899
0.752535
5.49759
3.39946
3.54278
3.27827
3.29793
3.31668
3.24155
21.7758
3.44079
2.82361
2.76159
2.47414
2.78103
23.5766
18.9431
-1.23508
-1.43951
3.18669
3.26166
3.28179
3.12905
3.15545
2.61978
15.7987
15.8431
3.34389
20.7176
5.04739
4.51388
-10.2025
-10.6931
-11.1657
20.364
4.0773
3.73279
23.8023
21.387
21.2633
8.58038
8.3328
8.50965
-3.43244
-10.1548
-9.12636
3.9729
3.61924
16.5341
16.645
16.893
0.949831
0.39475
15.9114
22.6618
5.71564
-9.69259
-9.72756
-8.75966
21.7871
21.8591
3.87489
3.92851
3.49514
3.14205
2.95517
3.10387
15.0439
23.8421
0.685894
20.1504
5.18746
5.18784
-16.1269
-16.9368
17.9313
17.8418
1.31499
0.827923
0.481032
-0.144147
-0.0937217
0.71612
-8.78465
-8.15435
-2.10404
22.1438
24.1394
-11.9698
16.8712
16.4913
-19.6191
-19.5315
15.7452
-11.3822
-12.218
18.6624
1.82638
2.10303
13.5739
13.8792
-15.5856
-11.666
21.4387
6.75218
6.89111
-1.22269
-1.46156
-9.26652
-9.0608
24.1497
24.1406
-11.2015
4.50802
4.15773
24.3395
4.35399
4.80774
13.0469
-13.3601
-13.9642
-13.1567
5.12068
3.1872
3.53724
3.15925
3.25657
3.43133
-11.2685
22.9448
2.97372
3.31342
3.37571
3.28948
1.61396
1.20551
2.87555
3.54686
0.103893
-0.0308252
7.72426
3.0647
3.21808
21.0543
21.4362
-10.4201
-10.8695
-11.0252
-10.8688
17.0592
-11.4401
3.03434
3.26452
-1.74933
16.7163
16.6376
21.3371
21.7341
21.339
21.2811
3.17649
12.9661
12.7313
12.5162
-4.06031
-3.48858
-3.08009
-2.6793
16.076
15.2994
16.2532
16.7082
-6.6838
-7.12292
-7.37065
23.0249
23.2962
18.5931
18.4836
15.5432
15.8163
15.6996
15.689
-16.9689
-12.0788
0.434105
0.299763
-5.40272
-9.41688
3.90299
4.22154
-9.99033
-9.77906
-9.73588
-8.78839
4.87379
4.51243
1.05278
1.01245
2.11097
2.25143
16.7478
17.0357
16.6086
16.2212
3.36401
3.29996
3.13597
3.33093
-1.9768
21.3485
2.27896
2.54799
2.79235
2.62534
6.33378
-10.3663
-9.87221
-10.4357
-5.95232
-6.91092
-6.57996
-6.86058
15.8729
15.4515
15.8193
-5.7674
4.38531
-9.2538
-7.6857
-9.58815
-9.65753
-9.04387
16.9137
16.7479
16.9337
-8.13329
-11.5453
-11.4398
-11.4214
-11.4565
-9.9286
-9.44562
-9.89048
16.7871
16.5154
16.3357
-2.58535
-2.02893
-0.799207
-1.48399
4.42447
4.3578
4.58203
1.98466
2.24884
1.74624
4.00978
3.86099
3.64583
3.38381
3.36689
-11.1344
-10.9144
-11.0894
-11.1803
-11.5164
-9.61231
-8.77938
16.9987
16.6847
16.5679
-4.08962
-4.74357
-5.27526
18.2344
-4.90809
-5.11945
-7.96762
-8.53196
19.8746
19.2365
14.9689
15.1372
17.9909
17.6773
2.03155
1.8357
-15.1854
-8.55178
-7.76613
-8.43245
-12.8944
-13.4099
-15.1379
-5.51601
-6.11051
-6.38907
-6.89693
-7.64188
2.97563
2.49993
3.12031
3.14722
-23.7794
-23.3693
-11.3227
-11.4751
-10.5071
-11.3744
-8.0097
0.795422
3.51231
-22.9704
14.5428
14.8404
3.40463
3.36079
3.22275
20.0172
19.9977
19.8614
-8.77225
-7.77259
2.35202
2.0455
2.31237
3.22173
3.03078
3.01076
3.05609
2.13466
2.52266
2.4752
-6.82205
-7.01024
16.4969
16.6484
16.8284
2.56966
1.84841
3.29307
3.47934
3.75147
3.0733
-8.78635
-8.53332
-8.78507
-8.31044
-11.5601
17.0078
17.0117
-0.42817
-1.15984
-1.51788
-0.950528
18.3571
18.1615
17.9003
18.2394
5.51037
5.66188
5.63546
-2.72908
-2.00402
-1.22175
-1.30737
-1.07289
-1.34352
-2.05689
16.2387
17.3288
16.6295
16.9528
19.2604
-6.69684
-7.05299
-6.50943
14.7787
14.5127
14.2407
16.6405
17.0559
-8.22281
-9.1715
-8.6162
-8.44527
-5.54205
-5.05642
2.66623
2.26764
2.5698
2.4541
3.261
3.67387
2.97258
5.07846
4.6512
2.38662
2.72175
15.9646
16.242
16.0717
0.990397
0.812173
2.19213
2.18089
2.17285
2.31461
15.0938
15.3681
15.3946
-7.8791
-8.22612
-6.92529
-8.06879
3.59061
3.61495
3.44466
-7.67477
-7.39104
-8.13058
17.908
17.9336
16.273
16.3111
16.0534
17.3118
17.0019
17.0219
16.9549
17.9484
18.0211
17.8384
2.99401
3.18511
3.00919
2.74999
-13.7604
16.991
16.7255
17.1161
16.9202
-11.8524
-11.7914
-11.7746
-11.6433
-6.04794
-5.53378
-6.42193
-6.86311
17.1681
17.1781
16.5569
22.9483
22.9535
23.0119
0.483414
2.61589
2.17705
2.44392
13.7636
5.01785
4.7362
3.87164
-8.91119
-11.9712
-1.68348
-10.3608
-10.496
-10.3646
-9.89619
-11.9904
-11.9256
3.13874
3.12986
2.77396
17.0113
16.8066
16.7213
3.3795
3.26415
3.25679
3.66409
21.6841
21.7736
21.4532
21.738
-5.81537
-5.60066
-5.39842
3.66672
3.5105
3.6673
5.30453
4.50512
4.54607
4.49431
-7.48145
-7.62869
-7.15478
-12.2578
-12.3338
-12.273
5.15722
15.529
14.9982
14.8631
15.1396
-4.97706
-5.44837
2.96891
2.71236
3.83504
-0.176956
-11.375
-11.2744
-10.8615
1.40449
2.26388
1.0396
-9.49717
-9.09032
-8.76336
-8.47228
-9.66631
-9.9155
-12.9925
-12.7797
-12.1683
1.02253
0.84504
-0.011804
2.30662
2.23707
2.22834
-8.68267
-8.4128
-8.66573
-8.38562
-26.5434
-25.6672
-3.52795
-10.8102
17.9488
21.2991
3.6247
3.24542
3.66947
20.5889
-26.0304
-1.96593
-1.44707
-1.96209
7.82342
7.7834
-2.28758
22.1211
1.71612
1.57815
1.92727
1.74344
1.78105
1.42462
1.48172
-6.40167
-7.51055
-6.78551
1.91579
2.51248
2.98013
2.79637
2.53323
2.79233
-3.53381
-3.82546
-3.39607
3.36654
3.21556
3.12159
2.95393
-13.4392
-12.8159
-10.4523
-9.93408
-2.28422
-0.17447
-0.600573
-0.11223
-0.173684
-6.39603
-6.0198
-10.2818
-9.92501
-10.4257
-10.421
-2.12171
-11.9592
-11.9477
4.09565
3.23193
3.41903
3.58673
3.38473
17.8368
18.1547
18.0426
-5.27573
-5.05059
-10.9991
-11.3209
-11.1972
-3.47451
-2.98295
-2.46314
-1.70736
2.63391
2.21836
-12.1041
-13.6471
-12.1496
3.33492
3.30344
3.4771
17.4314
16.954
16.7373
17.177
16.7701
16.8424
1.55126
-5.0687
-5.85778
-6.00619
-6.02396
-4.13734
-4.48541
17.0578
17.4023
-3.80426
-2.8633
-2.41054
-2.53659
4.6521
4.0155
4.49416
4.58926
-2.40229
5.51094
5.43043
-9.30417
-9.75281
-9.71099
-9.79012
-10.1426
-10.3743
1.29095
2.74544
3.06893
2.90754
-1.01587
-1.65541
-1.6278
-1.61438
22.1476
17.6062
18.2072
-15.6454
-16.8429
-9.90847
-9.21204
-9.73406
-8.98223
-21.3165
-4.54738
4.22033
4.47349
-18.505
3.086
2.92757
-9.18624
4.10108
4.19425
3.49712
3.57817
20.4848
20.762
1.71152
-10.6229
-10.0197
-10.6232
3.9942
-6.07777
-6.81321
-6.57492
-5.53672
-6.19806
-4.67
-5.26659
2.33865
2.11739
17.9571
-10.4141
-10.0634
-9.5463
-10.4828
16.506
16.0599
16.8322
16.9128
3.31518
2.87902
2.63375
3.08362
3.02511
20.5804
-5.11497
-4.8568
-5.01078
-4.13527
-7.58598
-8.29608
-8.38322
-8.07504
1.50512
1.43854
14.6403
14.3375
14.6853
-5.59111
-5.50489
-11.6716
-3.77607
-4.16555
-3.15837
-2.76481
-0.529422
-0.976345
21.6914
18.0497
-6.48747
-5.98575
-6.379
-6.64849
16.9466
17.1202
16.7652
21.514
3.52903
3.71456
3.31537
1.30147
1.24899
3.14998
-5.91805
-1.7544
-0.435135
-1.00035
3.74534
3.45954
-4.32644
-3.51407
-4.66092
-13.3934
-11.7306
-11.6917
-11.7029
-0.930628
0.0952234
-0.870491
2.93605
2.72973
3.02955
2.46309
2.71174
20.5314
20.9197
20.9152
21.1978
23.4191
-3.59574
-2.83633
-3.57522
2.11453
2.45651
2.73057
22.3126
23.5347
4.7029
-11.1967
-11.3086
0.75127
0.885077
-10.6684
-10.7656
-10.4565
3.22353
3.2436
3.41021
3.30458
2.46117
-1.02792
-0.675998
0.0534297
0.100011
2.14626
1.83057
14.9421
15.1632
3.57158
3.63783
3.67669
3.52678
-13.5174
-12.5087
-13.5689
-11.5285
-11.348
-11.4674
-10.7176
-8.46369
-7.71536
-8.66464
-8.87976
-15.1874
-11.7288
-11.7516
-11.6023
19.6188
20.8809
20.9848
20.3226
20.6465
-9.10121
-9.22927
-8.7113
4.21422
4.06898
4.2487
1.48243
1.52794
-2.53179
-3.26731
-2.96337
-3.71965
1.21881
0.635117
2.12933
1.72744
-0.563481
-1.2448
-0.607509
-0.49098
3.00147
3.08288
3.23221
2.81315
-4.40589
-4.56631
-4.37946
-20.9152
17.4644
17.7085
-7.00278
-7.75159
-7.62752
-7.23902
-9.41155
1.51087
0.948021
1.73805
1.41857
6.16971
4.9371
5.73217
5.28055
4.85581
-11.0081
-11.0817
-10.6051
-19.2854
20.3916
20.4325
3.84711
3.85523
3.38471
4.90628
5.10184
4.85392
24.7289
-12.17
-12.7046
-12.774
2.13791
-11.7324
-11.8524
-11.8187
18.4909
18.3896
18.2584
-11.863
-1.79653
-1.15986
-0.570739
-0.107411
22.7941
-11.1138
-10.9696
-10.0199
-11.6639
3.4833
3.31102
3.37421
17.051
17.002
-10.6768
-10.6597
21.7002
0.866181
0.0383465
0.998868
1.60013
-8.81686
-8.1565
-7.94837
17.4562
1.49106
1.51265
2.84065
2.96
2.57134
2.7937
19.7583
20.2452
20.044
20.5101
17.4658
16.4865
-7.6711
-2.59698
-1.86654
-2.21142
-2.31152
17.2344
17.5366
16.9983
16.9579
-6.14519
-6.23304
-8.66512
-8.05175
-8.5458
-8.66786
7.25231
-7.38205
-7.76366
-7.633
-8.01117
2.52136
3.28814
3.38747
-8.68032
-8.20758
15.8663
15.7023
3.33031
17.1209
17.1594
0.575802
4.75409
2.18141
2.20793
2.47694
2.30866
-5.78656
0.169884
-17.564
24.0105
24.0177
20.2423
-16.0182
24.1074
24.0205
23.9917
-20.1175
-0.249326
-14.4526
-0.113042
23.905
22.8379
23.4587
23.6486
-1.84287
-0.0532969
-0.028365
0.0404382
24.2278
-4.76769
-4.13613
6.26532
7.14737
-4.07072
-4.55937
-1.11413
-0.0622712
20.5379
24.2318
23.9092
-0.495607
22.5317
23.0725
23.4886
22.9263
20.9386
6.77908
1.72819
-16.1292
18.385
20.7681
23.7098
0.38994
24.0364
24.0204
24.0123
-1.84096
23.8966
-4.19518
-4.62483
23.6845
-4.15483
23.7887
-12.2054
-12.6851
22.1138
20.2621
21.2678
0.957279
-2.7979
22.0385
0.970968
0.750659
-16.1547
20.7423
21.1614
0.481284
-0.487089
0.560598
0.7942
-19.055
-19.574
7.32733
-25.7951
24.4517
24.5962
0.461909
0.231576
23.791
22.6229
-19.2331
22.2468
23.7891
22.0123
9.80711
11.3952
10.6841
-6.90475
22.0345
4.46732
24.3907
24.7134
22.2051
8.45089
7.78842
19.7942
24.3967
23.1865
23.2487
0.823874
-8.41686
5.85627
6.7841
6.15937
-3.61073
20.5362
-1.52493
24.515
24.4494
24.5298
6.9995
20.5016
22.1477
20.6836
18.5759
18.5207
18.2994
22.1851
23.2858
23.2323
22.8567
23.2531
23.0349
18.9006
24.1327
24.1317
19.9256
18.9668
20.7354
23.096
23.5112
23.5224
23.4566
16.745
16.8113
22.7369
22.9104
22.9707
24.5499
-27.492
23.6812
21.1821
24.6737
24.7079
23.1832
23.5918
23.4499
23.9205
23.8785
22.2008
22.8573
1.72003
-21.5297
-11.0782
22.8838
-27.5721
-26.4868
-13.1211
22.1553
2.87657
21.5843
-0.638422
22.2989
4.18964
23.2
24.3078
1.36313
24.5337
0.367111
0.0640066
1.88917
2.17008
20.0617
23.9567
-2.75912
0.768148
1.04323
21.9146
-12.1532
-12.239
2.66476
23.9356
20.8769
24.5934
24.4302
24.3984
24.3879
24.0784
23.633
3.46493
22.4072
23.6324
23.5761
20.9118
20.7842
22.7332
22.744
-2.80419
11.0987
24.2669
24.6312
1.59908
1.62838
22.5358
22.4761
21.089
21.1236
18.7086
1.34893
-14.8644
20.3993
21.0773
20.3529
-1.06093
-0.974212
-0.643486
-0.155884
23.2559
23.0853
1.93792
-13.091
20.6296
18.2109
17.8303
23.3929
-1.31519
0.211924
20.4133
20.5146
21.9143
-2.99968
-2.81267
17.8133
17.9053
23.1473
-5.80111
-6.96391
17.3467
17.5057
19.8489
19.9275
2.1134
1.81177
-0.470304
-3.50326
-4.0256
0.423828
0.363371
21.9333
-0.759259
22.8782
17.8214
-2.98066
22.5435
18.6307
18.9233
-22.5496
-0.444525
21.6902
21.8326
21.0388
22.2297
22.2627
7.17682
22.5495
22.3616
22.905
-1.04942
2.36584
2.25563
23.6137
4.36446
22.951
-20.7563
-2.44614
-1.90494
0.0893265
22.1815
22.2485
21.058
-23.8116
19.9727
18.7602
22.0756
-3.42442
-3.36118
22.4171
21.8178
21.8901
21.9451
21.9987
-25.3644
24.3005
-5.60709
21.8199
18.6301
18.5113
18.7391
22.8228
22.1806
-1.11447
7.36152
6.79169
0.0453294
0.129759
-18.0324
22.1649
-18.1251
18.8263
18.7955
7.9857
8.73652
7.81394
-3.78316
-3.52199
-18.038
-0.415944
19.017
1.23698
1.34638
1.47233
19.0968
22.3178
-1.83049
-2.41861
-0.287225
-2.13093
0.707867
0.28683
1.69199
-3.93499
19.4271
-8.52158
-6.91621
1.31192
0.955504
2.29086
22.5895
22.3986
-0.706191
-13.644
22.0914
18.1343
18.376
17.5652
17.3474
17.2776
-10.541
23.506
22.599
22.6229
18.8283
20.5129
1.79096
1.70307
2.16396
1.86075
23.545
23.5179
-2.72979
20.6926
20.6461
19.9608
19.9064
19.4754
20.9626
20.8303
20.5642
0.99541
1.10097
1.26348
4.59394
1.77118
0.59944
3.46789
-6.52918
-6.3103
23.816
9.35523
-4.88916
-3.89241
-4.28526
-10.8557
-10.5174
3.40608
19.5929
19.1032
19.1168
24.5326
-0.0361923
21.4411
-10.3179
-10.5791
-10.6567
-10.4316
24.2185
3.07245
2.80817
24.0555
18.1415
-5.01539
0.657778
0.760856
-0.531436
-0.455108
24.6622
18.048
-5.97298
-6.81682
-6.52006
-7.35034
24.3856
-1.98794
-2.68249
-2.04903
0.694976
0.660479
-3.00274
19.1375
19.0025
-0.704564
19.804
-8.52974
-8.2858
-8.7333
0.489235
23.0511
-0.849647
-0.412747
23.4383
23.6574
2.01026
1.65128
7.86863
9.13384
17.6411
17.6214
23.306
-7.71637
18.3746
18.3101
18.0866
18.1581
0.672957
-1.2707
-9.49374
-9.95106
-10.4902
23.8729
23.8711
-5.7621
-5.95865
-5.9001
-10.0173
-7.96293
-12.7489
-13.1544
17.7687
-4.79541
-4.53764
24.0695
17.0381
17.4608
17.3675
16.9729
18.4483
18.5716
-1.63535
-2.56323
23.2396
-4.32648
-4.82784
-5.08971
1.61964
1.05946
23.0441
0.663127
21.8857
22.6677
-3.77059
-3.70451
-3.06743
-8.44647
-7.96287
14.8962
14.2322
19.1444
18.9043
17.9042
18.5287
18.4231
18.9272
19.3909
19.1999
18.9725
19.1563
17.443
21.4717
22.7415
10.8858
-12.3971
-12.5538
-12.1891
23.6114
21.5665
3.54337
3.27196
2.0053
2.10177
1.89437
20.5592
-10.9537
-3.58796
23.8321
-0.0431133
-4.93899
16.9408
16.5816
16.5677
-0.784162
22.1965
24.7024
-6.45628
-3.33554
-0.578964
19.3319
19.4705
0.782347
-13.5211
-13.9804
22.2552
-5.13052
-10.0676
23.0859
-0.907226
-1.53446
3.33272
3.42308
-0.62901
20.6868
-16.6882
18.4949
21.744
20.4027
20.0076
0.545034
0.206569
19.1084
19.1533
18.8175
23.2705
23.2456
0.207211
-0.503993
0.919881
0.94863
3.60999
3.35634
24.4187
17.5094
17.6653
23.1305
23.0989
1.8204
1.69652
-5.01263
-3.14528
-3.07595
-0.212553
-0.582509
0.768295
0.586883
12.568
0.79404
0.796155
-10.2117
-10.0129
17.447
17.5145
-6.66074
-6.24619
0.440678
-18.0621
-17.3869
17.8867
17.6857
17.5913
17.5339
-6.07642
-6.4382
2.0699
1.95102
1.8109
1.54891
2.15756
2.41268
21.5231
21.5685
1.42098
1.65963
1.53349
22.3967
21.4186
6.53616
7.49237
21.1775
17.3428
17.307
17.19
0.217737
-6.71239
-5.61299
23.6396
19.2732
19.1381
-10.1975
0.651497
22.1424
-1.59658
-1.48079
-3.7504
21.6765
21.8614
4.16467
4.27881
4.66024
4.67014
3.17475
3.09977
-3.29671
-3.36375
-0.138442
-0.354401
0.647827
0.609363
0.639243
4.69046
-8.34048
-1.96524
16.8552
17.0977
15.6086
16.5902
18.1625
18.4873
18.4886
3.21631
3.12598
18.6176
-3.8833
-13.7509
20.158
1.17115
1.25925
5.6955
0.856643
-0.296743
0.364131
0.552383
16.7496
16.9656
-0.713105
-10.6928
-10.1002
17.6669
2.71768
2.08558
-6.15393
0.586571
0.637214
17.3829
-13.3374
0.428893
-1.50069
-0.401603
-0.222975
18.3551
18.23
19.5069
18.9365
18.0866
18.5146
4.49866
23.2715
17.088
17.1701
17.1747
-6.92804
22.0315
-7.75638
-8.24088
-10.2336
1.6329
1.50354
1.78634
3.1943
-5.51793
-6.34392
2.49542
2.98846
2.76147
1.55792
1.28623
1.23904
0.0583347
-0.0573921
17.2741
17.1926
21.3995
21.5416
21.4257
0.991881
0.912493
1.42985
1.5175
-12.969
-0.692467
5.38559
6.35728
-5.8859
-5.99155
-9.18625
-9.62986
2.95142
2.90421
2.82231
8.84814
8.16228
9.51542
-0.264232
-0.311511
-0.13226
1.46214
1.76454
1.48159
16.3679
17.112
2.50059
2.37076
2.11282
-10.451
-10.1237
-10.4832
1.47359
1.39154
-10.9584
-11.1984
-5.22278
-7.32739
-7.27115
17.7896
17.7331
-18.227
-17.5954
17.7676
17.4546
17.3802
2.99644
-2.85169
-0.317778
16.7879
23.9491
0.28928
23.2888
2.582
2.65848
-9.82615
22.0662
2.70354
1.36539
1.2378
2.92752
2.87055
17.0126
17.1805
0.64513
5.22691
5.0817
-5.07999
4.26108
4.01261
3.75235
0.147065
-0.24929
6.02022
3.44489
3.44731
5.16972
5.50083
0.978258
1.28316
18.8135
18.764
2.73598
3.00234
-24.0301
3.79432
3.97575
-4.28996
-5.42754
3.2545
3.22928
5.42272
5.73245
4.11623
3.99354
-2.29657
-2.47074
-2.66813
18.5412
18.7159
18.8229
17.5382
17.6904
21.6237
-1.51174
-1.40721
8.06598
-5.77091
-5.87694
1.19707
0.977843
-5.25978
-4.1892
-5.3417
-8.14599
-8.53309
1.35408
1.49237
-0.36098
-0.119884
17.83
17.0395
-10.5204
-10.2354
-8.12615
-8.43798
-8.62772
-7.62494
-7.12683
-8.6234
21.2912
-5.09447
-4.82993
-4.92657
18.6423
18.6609
19.0488
16.4205
15.9951
-0.705102
20.03
19.9825
16.9321
16.8588
0.824615
0.993812
1.08187
3.35334
2.89423
2.86644
16.7788
16.9706
21.6314
21.4514
18.6073
18.1964
18.2203
-3.2022
-3.75293
-6.45975
-14.4548
-14.1562
20.3538
20.321
20.6366
23.883
3.96406
4.42019
4.91025
-0.322864
-0.278454
3.45942
17.834
18.446
17.9965
18.5469
17.6994
16.8703
17.5668
18.1658
1.1364
1.11176
-5.7323
-5.1596
-5.64362
-3.27247
-2.99736
-22.0256
-2.31327
-2.53426
-9.07942
-1.92317
20.4832
20.5
-3.91403
-3.53978
-3.54102
1.31508
1.25292
1.07223
1.09165
0.66722
19.4297
2.0513
2.48365
-0.194686
-0.0643728
-0.180652
-14.7126
-14.1958
-12.6486
23.3209
23.1766
-16.0247
-15.4567
0.504604
1.13752
20.9628
21.0577
20.4691
20.994
-0.84352
-0.811556
-3.84196
-4.31201
-0.0780207
-0.342481
-0.61618
17.2277
17.251
15.8503
0.772883
0.701589
0.735099
-2.964
-4.6453
-4.47583
-5.29628
0.90712
1.86683
2.54611
2.06813
0.9023
0.809693
0.736744
3.92878
-0.957867
-0.708679
20.1336
8.09944
0.568415
19.9618
19.4825
-13.9659
21.5388
1.14761
-11.8561
-10.2683
-8.26027
-11.5635
11.198
7.25205
-1.80649
6.00317
-4.62239
-1.70897
9.74115
5.06787
-17.2909
8.47461
4.28472
-9.559
6.0214
12.4595
11.8034
-7.7476
7.18667
5.24304
9.87068
-8.7818
-15.8529
10.3656
-12.1345
11.779
6.61763
2.69332
-7.00099
-13.2451
11.0613
12.8939
6.50825
6.52281
6.49551
14.7584
9.61724
-0.880515
-1.76841
-1.9285
-21.562
10.4556
12.0504
11.5995
2.0701
2.93507
2.53062
3.30567
4.85555
10.0788
-14.2611
-14.54
-7.52144
7.072
-12.2932
1.56323
11.0529
-1.87607
-6.80793
11.0882
2.00637
-2.43898
-7.9234
11.4871
12.3628
-30.4573
10.9449
-6.69438
-0.0434591
15.2752
6.83314
-9.79932
21.1887
21.6016
-11.1938
-11.9165
6.69419
7.57312
7.57483
-7.01692
-0.265393
5.15118
2.27045
12.8237
9.61919
12.9318
-4.68331
-4.79006
10.418
10.0097
10.6969
-19.3411
13.4732
13.3467
-4.70214
-4.95892
2.8571
5.2873
7.2483
7.77032
-13.5684
-14.7825
9.87889
10.6413
13.2049
13.5147
-0.0793785
0.955559
-15.4857
-16.3982
-0.301295
0.597561
-14.4873
-9.13122
-10.2575
8.25775
7.87941
-12.8749
9.62876
8.80511
4.48582
4.88309
5.73981
6.04534
-13.3482
11.2426
8.59666
-1.15706
1.77117
-12.8993
7.98129
-15.1128
-1.70495
14.9045
-1.99645
1.89091
10.9625
6.48272
-0.192192
0.506619
-11.8569
-2.63051
13.5541
2.12074
1.20417
-1.43619
5.47974
-0.479783
-1.42448
8.0355
8.92257
8.64923
6.65146
16.5275
-3.50231
13.9043
11.4499
11.9645
1.75642
0.972562
15.9288
16.1155
4.76
-20.0322
-0.464586
0.36531
-10.827
-10.9575
9.95529
9.94722
-8.82627
-9.35982
-10.3437
13.9586
14.227
8.81799
-28.6542
9.28241
10.6463
10.8134
-16.6844
-3.80104
6.78538
-17.7932
5.43351
-21.9967
-4.67818
-3.39164
2.79433
2.42591
-14.576
-1.36062
5.63426
2.50792
1.95069
1.08498
1.79577
9.97188
12.9247
13.1515
16.0371
-2.19874
-3.00646
-12.8414
10.1807
5.45211
-15.2781
7.3953
7.38344
7.81633
1.20316
1.80068
10.6972
5.91648
6.09174
2.70652
2.95568
10.5111
9.71699
3.03007
3.79409
-4.89271
11.4183
10.9477
-14.6306
2.06802
2.18142
1.84716
2.28803
2.46281
2.3524
-12.9444
-2.6812
1.17983
2.38687
3.22372
5.19449
2.51438
2.17286
12.6073
12.3017
3.11873
-10.9718
12.3014
-14.9212
-1.01127
-0.35226
12.3956
12.1694
9.63643
9.10859
-12.4704
6.31548
-4.74771
-4.69096
7.83438
8.57879
5.44768
-0.405632
-0.106166
0.460144
13.4562
14.3074
8.77443
9.15437
10.2463
10.806
10.6121
10.7841
5.08562
4.37959
-12.9206
-13.1185
-1.02499
-0.794067
-1.52925
-1.71904
21.1887
21.1583
21.4131
10.9557
10.6315
10.5866
5.56174
5.34086
11.2273
11.2854
11.3437
3.25811
2.3066
14.3004
13.4251
11.0744
10.9131
11.3914
11.6921
-11.7285
15.2318
15.3617
-0.630781
-1.80082
9.28595
9.03126
3.68823
4.29633
2.27608
2.98586
9.49838
6.37641
0.829542
-7.15425
-7.5974
-12.8664
1.85082
1.50304
2.17748
2.97078
8.41614
-9.59334
-10.4386
-9.43906
-1.92534
-0.188776
0.779758
15.274
15.9335
3.24254
2.63967
11.7104
11.9738
-3.16757
-3.4446
13.892
14.1029
2.35026
3.07199
10.0041
10.2199
10.4525
10.1719
8.78571
8.98953
-3.77889
-2.80237
11.352
11.1723
-16.215
-15.0603
22.0278
8.97473
9.65735
9.86406
-8.73931
-9.4495
-1.83292
-1.65815
-4.8252
5.38726
5.39599
2.76641
2.19395
11.2404
11.4193
4.7323
-25.3692
-14.8968
5.8357
8.35012
11.9054
9.81619
-1.13732
4.35441
3.79149
9.56302
10.2236
14.0602
14.617
14.0881
11.0282
10.4904
-12.7792
-4.09903
10.5734
10.7832
10.5195
10.9896
3.66898
3.4442
3.1536
3.25717
1.78805
4.0061
3.18359
6.36754
5.4131
5.62201
5.61862
-11.7967