/*--------------------------------*- C++ -*----------------------------------*\
  =========                 |
  \\      /  F ield         | OpenFOAM: The Open Source CFD Toolbox
   \\    /   O peration     | Website:  https://openfoam.org
    \\  /    A nd           | Version:  6
     \\/     M anipulation  |
\*---------------------------------------------------------------------------*/
FoamFile
{
    version     2.0;
    format      ascii;
    class       surfaceScalarField;
    location    "1700";
    object      phi;
}
// * * * * * * * * * * * * * * * * * * * * * * * * * * * * * * * * * * * * * //

dimensions      [0 3 -1 0 0 0 0];

internalField   nonuniform List<scalar> 
44596
(
1.53623
-2.16225
0.626025
1.53623
1.44643
-1.44643
1.93757
-0.491134
-0.0936887
-2.14604
2.09912
-0.562888
1.30953
-1.30953
0.215907
1.8168
-2.21225
0.765819
-0.267228
2.30057
-0.799542
-1.20588
0.799542
1.29957
-0.560067
-1.34302
0.560067
0.749459
-0.593557
-0.82573
0.82573
-1.17061
1.38652
1.19423
0.63707
-1.8313
0.0431296
1.50309
-1.54622
1.42594
-1.42594
-0.146986
-1.67437
1.82135
1.54794
-0.0870752
-1.46086
1.12391
-1.12391
-1.10387
1.10387
1.12302
-1.12302
0.238668
1.24414
-1.4828
1.37184
-1.37184
1.46772
0.0802174
-1.31525
1.31525
0.267113
1.34935
-1.61647
-1.58206
1.58206
0.600969
0.582183
-1.18315
1.94134
-0.515399
-1.25358
-0.21761
1.47119
-1.42865
1.42865
0.706559
1.29325
-0.793349
1.49991
1.47158
-1.7669
0.295313
-1.62239
1.62239
1.05505
-0.816384
1.2454
-1.41598
0.170575
0.961372
-0.961372
1.20088
-1.34787
-2.30924
0.830772
-0.830772
1.00795
-1.09503
1.83873
-1.9258
-1.58659
-0.613651
-0.789709
-0.796876
-0.897802
0.897802
-1.03976
1.08289
1.98069
0.0634411
1.48729
-1.55074
-1.53502
0.135093
1.39993
-1.55074
-0.458151
0.00817378
-1.43683
0.113404
0.211375
0.259672
-1.81041
-1.50722
1.81041
0.529199
-1.20721
1.99692
-1.43683
-0.943032
-0.472944
-1.55877
1.55877
0.89704
-0.391457
-0.505584
-0.81418
0.415509
0.398671
0.703149
-0.113435
-0.589715
-0.00128136
-0.0919606
0.0932419
-0.0596553
-0.0637523
0.123408
0.0613101
1.44178
0.853804
-0.792494
-0.00278565
-1.45808
-1.2053
1.20251
-0.0392677
-0.00355629
0.042824
0.124491
1.06974
-0.793253
0.555086
0.238168
-1.66068
-0.0136896
-0.348841
0.927518
-0.578676
0.41675
0.594654
-1.0114
0.0481074
-0.881528
0.833421
0.00925
0.0667402
-0.0759902
-0.0356997
0.00976831
0.0259314
0.0964342
-1.03212
0.935686
0.805319
0.636464
0.710406
-0.608807
-0.101599
1.24554
-0.142302
-1.10324
-0.163246
-1.09413
1.25738
1.53156
-1.6948
-0.0216334
-0.0140663
0.00504513
-0.0443129
-0.934175
-0.726502
-0.037192
-0.896983
-1.07534
-0.00691991
0.0329191
-0.0259992
-1.30906
-0.14902
-0.441353
-0.867702
0.0106047
-0.803858
-0.803576
-0.679367
-0.608265
-0.325348
0.933613
-1.19827
0.980656
0.0007314
-0.0007314
-1.10215
1.25381
-0.151665
0.251363
0.904883
-1.15625
0.819785
0.0685544
-0.88834
0.0163317
0.911186
0.913372
0.897496
-0.480671
0.897421
-0.886502
-0.318797
-1.1313
-0.307421
1.43872
-1.19775
0.259833
0.937922
0.536014
-0.852755
0.316741
1.05607
0.943831
-0.744158
0.753875
-0.00971716
-0.882081
1.05266
0.848547
-0.211477
0.253601
-1.18845
0.934854
-0.979388
-1.02836
-0.283268
0.986417
-0.897326
-1.41191
0.934518
0.308038
-1.24256
-0.00946582
-1.41648
1.14076
-0.205909
1.22249
0.7582
1.07594
0.923991
-0.63152
-1.29428
1.07287
0.171262
-1.10644
-0.880842
-1.85146
0.745023
-1.63695
-0.194357
1.15747
-0.734805
-0.422666
-0.102718
0.802172
-0.699454
-0.952335
0.0846323
0.886804
0.116299
-1.05933
-1.32053
0.419813
-0.912647
0.492834
0.822743
-0.611369
-1.52402
-0.805604
0.332659
0.351868
0.715363
-0.775937
0.0605743
0.808653
-0.695248
0.0484569
-0.0392069
0.0382539
-0.0451738
-0.534812
1.02765
-1.23279
0.69798
-0.00118089
0.0011809
0.865485
-0.879076
0.0135914
0.13068
0.000734435
-0.000734418
0.000734443
-1.1002
1.1002
0.861767
0.802264
-0.671585
0.757176
-1.25347
0.496291
-0.72025
0.570108
0.150142
-0.00984427
0.396333
0.457471
-0.566176
-0.2374
-1.55153
1.494
0.0575338
0.208144
-1.09023
1.53156
0.946392
1.38815
-1.46977
0.0816182
0.00148569
-0.00148568
0.000751279
-1.00442
0.890982
-0.859346
1.15998
-0.300629
0.817437
1.41841
1.29474
-0.712554
-0.638526
-0.372877
0.656211
2.35313
-0.981289
-0.14561
-0.92332
0.230604
-0.645434
0.414831
0.0614847
0.800282
0.285679
-0.875393
1.0427
-0.0620419
-1.18468
0.944679
-0.2467
-0.130664
0.794357
-0.112745
1.23661
-1.35868
1.35895
-0.00027106
-1.04189
-0.50433
-1.53303
-0.767208
0.383738
0.0475463
0.627848
-0.675395
1.20973
-0.153659
-0.148945
1.70504
-0.483469
-1.22158
-0.14642
0.757566
-0.405698
-0.62717
-0.225585
-1.40102
1.33788
1.96391
0.00401844
-0.00309937
-0.000919076
0.00146213
-0.00667724
0.00521511
-0.0281622
0.0283178
-0.00015556
0.0412351
-0.020172
-0.0210631
-0.00468704
-0.00481221
0.00949925
-0.0096382
0.00495117
-0.0571151
0.0123303
0.0447848
-0.0181224
-0.104994
0.123116
-0.00549167
-0.00547063
0.0109623
-0.0644957
0.0488916
0.0156041
-0.112461
0.0732058
0.0392555
0.0561438
-0.00789788
-0.048246
0.00635135
-0.00543247
-0.000918878
-0.498033
0.323772
0.17426
0.0189533
0.00162087
-0.0205741
0.00696706
-0.00499735
-0.00196972
-0.00127101
0.00127101
0.00394023
-0.00943189
0.00747534
-0.00487657
-0.00259878
0.0212451
-0.0453177
0.0240726
-0.00768114
0.00572583
0.0019553
0.00373738
0.00322968
-0.0532999
0.00417204
0.0491278
0.0454582
-0.0474563
0.00199808
0.0114562
0.0145696
-0.0260258
0.038414
-0.0269579
-0.0551147
0.0107365
0.0443782
-0.0386489
0.0565394
-0.0178905
0.00145063
-0.00145063
-0.00605851
-0.00686596
0.0129245
-0.0108707
-0.0482163
0.0529774
-0.004761
-0.00819949
-0.0557529
0.0639524
-0.036828
0.00823269
0.0285953
0.00353512
0.0160349
-0.0195701
-0.00334772
-0.0170346
0.0203823
0.00263116
-0.00263112
0.0138381
-0.0386034
0.0247653
0.00465583
0.00670774
-0.0113636
0.0103316
-0.00179649
-0.00853514
-0.0108119
0.0857251
-0.0749133
0.0653986
-0.0762104
0.0517527
0.0222699
-0.0740226
0.0671486
-0.0153959
0.0072558
-0.00298949
-0.00426631
-0.00389232
0.0463668
-0.0424745
0.0615063
0.00920124
0.00975202
0.0189695
0.00599779
-0.0244716
0.0184738
-0.0198483
0.019649
0.000199335
-0.00781767
-0.0120307
0.0568228
-0.0556595
-0.00116322
-0.047372
-0.00892411
0.0562961
-0.00707919
0.00326599
0.00381319
0.00912985
-0.00682356
-0.00230629
-0.0111945
0.0359473
-0.0247528
-0.0471752
0.0389758
0.0089686
-0.00924059
0.0038711
-0.00681072
0.00293962
-0.0170637
-0.0380511
-0.000986485
-0.00461874
0.00560523
-0.0217189
0.0139012
0.0120044
0.00330866
-0.0153131
0.00598108
-0.012847
-0.627044
0.301696
-0.0231499
0.0119555
-0.00278516
-0.00123683
0.004022
0.0234373
-0.023214
-0.000223328
0.00851614
0.0149212
-0.0118757
-0.0112742
0.00432921
-0.0162049
0.0072984
-0.0185726
0.0059486
-0.00776635
0.00181775
-0.00225579
-0.00387649
0.00613228
0.000551413
0.00970393
-0.0102553
0.0480523
-0.0373158
0.00940342
-0.0522753
0.0277695
0.0245058
-0.0160534
0.0199302
-0.0038768
-0.00326292
0.0161874
0.0112998
-0.00906286
-0.00223695
0.0449696
-0.0355662
0.0468046
-0.00183499
-0.046578
0.0110119
0.0578005
-0.675752
0.617951
0.00527917
0.00385068
-0.00322042
-0.00385876
0.0632218
-0.341135
0.277913
0.172137
-0.502203
0.330066
-0.000423958
-0.00617508
0.00659904
-0.00320855
0.00627759
-0.00306904
0.0264901
-0.0179739
-0.0108838
0.0313452
-0.0204614
-0.0283324
0.0111038
0.0172285
-0.0183913
0.0287818
-0.0103905
-0.0467237
0.0398856
-0.00625361
-0.00461712
-0.0174575
0.0247559
-0.00615665
0.00761878
-0.00514317
0.00676403
0.0143828
-0.0348293
0.0492005
-0.0143712
-0.0550652
0.0202359
-0.00204514
0.0210859
-0.0190407
0.00619848
-0.0192422
0.0130437
-0.0625288
-0.0499325
0.261954
-0.58604
0.324086
0.00144027
0.0522446
-0.0536849
0.0582631
0.0443467
-0.372075
-0.125958
-0.0118691
-0.00870506
0.00760869
0.0113311
-0.0189398
-0.142715
0.202526
-0.0598117
-0.0011828
0.0011828
0.0917323
-0.0344144
-0.0573179
-0.00556146
0.0084888
-0.00292733
-0.0507022
-0.0282934
0.0789955
0.00856056
0.00582225
0.0115611
-0.00661972
-0.00494141
0.00679248
0.0128565
0.012991
0.00260316
0.0102534
0.185187
0.118794
-0.303981
0.0197578
0.00613592
-0.0258937
0.00187554
-0.0137446
0.464294
0.124742
-0.589036
-0.748265
-0.133264
-0.00430662
-0.0215871
0.036707
-0.00378785
0.0324004
0.0274702
-0.0222797
-0.00519056
0.0128912
-0.0388904
-0.00765478
0.00140117
-0.00857864
0.000923856
-0.386748
0.482718
-0.0959703
-0.506709
0.496992
0.0230377
0.0335017
0.0402662
0.0479786
0.0116166
-0.0595952
-0.0505362
0.0401458
-0.00133573
0.0410532
-0.000907484
-0.00728782
0.0495018
-0.042214
-0.0546598
-0.00584901
0.00421617
0.00163283
-0.0772634
0.0265612
-0.00768449
0.0531427
0.0109801
0.00759997
-0.01858
-0.00893493
-0.0142791
-0.00667909
-0.635364
0.497036
0.138328
-0.0376178
0.0271247
0.0104931
0.000796216
-0.0251506
0.241539
0.236187
-0.477726
0.340528
-0.0989891
0.552928
-0.00805428
-0.00100858
0.00161748
0.00971364
-0.0064368
0.0307697
-0.032051
0.033726
-0.0286809
-0.0607319
0.328622
-0.155309
-0.173313
0.00495004
0.00504445
-0.0099945
-0.00605196
0.00909781
-0.00304586
-0.00629107
-0.0136856
0.0199766
0.00940501
-0.0156961
-0.0116583
0.00522154
0.00111419
-0.0127725
0.0112625
-0.00604092
0.0292299
0.022418
-0.051648
0.0319402
-0.00135847
-0.0305817
-0.0113309
-0.049401
0.0373098
0.000944138
0.0259788
0.00896356
-0.00139577
-0.00756779
0.00267478
0.00628878
-0.0247853
-0.0212859
0.0460712
0.0142922
0.0189102
-0.0332024
-0.00237566
0.00353257
-0.00674112
-0.00576462
-0.0475353
0.0462849
-0.0250398
0.00576932
-0.00823282
0.0024635
-0.00784898
0.00642969
0.00141929
-0.0261296
0.0120633
-0.00627076
0.0322496
0.0146196
-0.016904
0.00228444
0.0206007
-0.0190584
0.923941
0.210386
0.591878
-0.44099
-0.18618
-0.0101089
-0.00679515
0.0052065
-0.0153154
0.00855189
-0.015347
-0.049503
0.0110849
0.038418
0.00061136
-0.056765
0.0561536
0.00884439
0.0206722
-0.0295166
-0.023414
-0.0097884
0.0405916
0.00891022
-0.0107766
-0.0366797
0.029815
0.00756036
-0.00183961
-0.00572076
0.00626995
0.00129041
-0.00727504
0.00543544
0.0199201
-0.016385
-0.530401
0.590975
-0.512297
0.59371
-0.0814123
-0.00427248
-0.00737521
0.0116477
0.0257503
-0.0854056
0.0324506
-0.0186125
0.00428833
0.0281921
0.0121426
0.00845808
0.0172583
-0.00511575
-0.014682
0.0231401
0.0784332
-0.0685771
-0.0098561
0.00322746
-0.0196053
0.0163778
0.0207562
-0.00786499
0.0239837
0.324996
-0.338007
0.0130103
0.00215604
0.00940509
-0.00808582
-0.00049282
-0.00592978
0.00891228
0.498154
0.946617
-1.44477
-0.000797359
0.000797358
-0.570288
-0.0680874
0.638375
-0.819445
1.3176
-0.0012661
8.52203e-05
0.467618
-0.409817
-1.06529
1.0653
0.130606
0.945337
-0.885517
0.654204
0.231313
-0.407372
-0.478144
1.23894
-0.260456
-0.978482
0.110224
-0.0549057
-0.0553186
-0.528212
-0.107151
-0.103607
-0.424605
-0.836353
0.932787
0.185274
0.312667
-0.497941
0.370461
0.0437858
0.648161
-0.691946
0.482974
-0.439189
0.0644454
-0.0164668
0.602081
-0.621139
0.536661
0.0654197
0.136341
-0.110591
0.484259
-0.235743
-0.248516
0.196855
0.287404
0.00358347
-0.00387995
0.000296485
-1.01618
-0.144884
0.577078
-0.432194
-0.000569252
0.000569252
0.399849
-0.94467
0.544821
-0.554359
0.601905
-0.308782
0.594461
0.08122
0.0551212
-0.607651
-0.219023
0.826673
-0.0561313
-0.0216065
0.0777378
0.00831409
-0.157058
0.00893879
0.14812
0.64436
-0.70054
0.0928892
-0.327674
-0.372866
-0.691975
0.364302
-0.918476
0.0462193
-0.996779
0.75008
-0.163358
-0.440257
-0.235495
-0.637717
0.412132
-0.130052
0.352666
-0.898397
0.50694
-0.61007
-0.288327
0.000592202
-0.000592202
0.00109378
-0.0038168
0.00272303
1.03552
-0.148718
-0.0114643
-0.671078
0.682542
0.944251
-0.61727
-0.326981
0.33418
0.219463
-0.700134
0.661426
-0.0876832
-0.573743
0.880802
0.7385
-0.314641
0.71449
0.0299697
0.0743164
0.0185634
-0.186618
0.227196
-0.0405782
0.219761
0.424598
-1.15276
1.15276
-0.490836
-0.201139
-0.758774
-0.273346
0.839354
-0.332414
0.08058
0.273538
0.194079
-0.00390937
0.00226217
0.00164719
0.793255
-0.531301
0.302419
-0.0252204
-0.0889727
-0.00852459
0.0025948
0.812451
-0.957335
-0.455394
2.01416
1.03861
-0.541964
0.359885
0.182078
-0.268425
-0.325445
-0.332618
0.658063
0.0364769
0.247243
-1.50071
0.861531
-0.614288
-0.0828401
-0.255301
0.338141
-0.269458
1.20165
-0.0590856
0.0420219
-0.0368157
-0.624752
-0.2116
1.07444
0.248634
-0.578811
0.330177
-0.829677
-0.581043
-0.801813
0.255188
-1.057
-0.0096605
-0.0130433
0.0541053
0.063681
-0.942757
0.711842
-0.000393221
0.000985422
1.22249
-0.682838
1.90533
0.225368
1.03829
-0.812922
0.934683
-0.925492
-0.0906882
-0.290528
-0.288282
0.643085
-0.0188477
0.0041657
-0.0165632
-0.0275816
0.0110184
0.111019
-0.64768
0.723153
-0.0754732
0.298547
-0.606042
0.985668
-0.379627
-0.0289639
0.783487
1.04718
-1.1936
0.00623633
-0.630462
0.26696
-0.142475
-0.00357277
0.0267128
0.0434184
0.183778
-0.0671724
1.27097
0.211028
0.848303
0.0447593
-0.0536834
-0.0109002
0.0101525
-0.0991252
-0.0752531
-0.142426
-0.0227558
-0.0619626
0.419044
-0.494517
0.510172
-0.0911283
0.349375
0.160797
0.422554
-1.34163
0.158273
0.0402572
-0.487388
-0.158046
-0.447131
0.577207
0.0407436
-0.446663
0.288617
-0.0981522
-0.34851
-0.353453
1.13959
0.130125
0.826826
-0.696701
0.56637
-0.000558633
-0.000238727
0.00467724
-0.780629
-0.456856
-0.59012
0.0223751
1.39466
0.711826
-0.757947
-0.00781304
0.00938014
-0.0015671
0.00286838
-0.0106814
0.0013966
0.00469702
-0.00609363
-0.0057453
-0.00715628
0.0129016
-0.151192
0.264929
-0.113737
0.00517191
-0.00434378
-0.000828128
0.00747086
-0.0018505
-0.00562036
-0.00623431
0.00385103
0.00238328
-0.00455774
0.00405111
0.000506629
-0.014364
0.0143297
3.43034e-05
0.0115456
-0.00238624
-0.00915939
0.00269978
0.00884585
-0.0170624
0.00524432
0.011818
0.00695096
-0.00266555
-0.00428541
0.00277568
0.00417528
-0.0133611
0.00491325
0.00844783
0.00548547
-0.0188466
-0.0035165
-0.00441982
0.00793632
-0.00856655
-0.0016146
0.0101811
0.00200475
0.00804075
-0.0100455
0.00445228
0.00222219
-0.00667447
0.00482137
-0.00799237
0.003171
0.00859253
-0.00958313
0.000990602
0.00181301
0.00677952
-0.00791582
0.00527445
0.00264136
-0.00511762
-0.0027982
0.0024517
-0.00713652
0.00468482
-0.00160622
0.00995588
-0.00834966
-0.00230906
0.00415628
-0.00184722
-0.00327463
0.00198077
0.00129386
-0.00338191
-0.00290011
0.00628202
0.00484767
-0.00822958
-0.00291837
0.010191
-0.00727261
-0.00752696
0.00225955
0.00526741
-0.00163331
-0.00589365
0.0029469
-0.00702076
0.00407386
0.00200903
0.00434514
-0.00635418
0.00757007
-0.00766902
9.89533e-05
0.0032467
-0.00276293
-0.000483768
0.00367368
0.00320187
-0.00687555
0.0037146
-0.00496587
0.00125127
-0.00649811
0.00298161
0.00756158
0.000522815
-0.00808439
0.00425932
0.00330225
0.00349056
0.00770779
-0.0111983
0.00850475
-0.00995429
0.00144954
0.0108318
-0.00116093
-0.00967082
-0.00921457
0.000444194
0.00877037
-0.00837789
-0.000766172
0.00914406
-0.00443668
0.00688838
0.0080264
-0.0116773
0.00365093
-0.013246
-0.00111799
-0.00716025
-0.00608576
-0.0247178
0.0198966
0.00482122
-0.00713606
-0.333321
0.340457
-0.0089393
0.00451828
0.00442103
-0.00594689
0.0074332
-0.00148631
0.185082
-0.192218
-0.00474866
-0.00538867
0.0101373
-0.00967928
0.00162486
0.00805442
-0.00252228
-0.007157
0.0200049
-0.00553812
-0.0144667
-0.00776216
0.027767
0.00800671
-0.00232108
-0.00568563
0.00302607
0.00498064
-0.00713689
0.0112654
-0.00412852
0.00552689
-0.00815554
0.00262865
0.00853822
-0.00576254
-0.00116118
0.0118002
-0.010639
0.00471276
-0.00613998
0.00142723
0.00970546
-0.0129299
0.00322441
0.00868073
-0.00868074
0.00221296
0.0157171
-0.0179301
-0.0103222
0.00555098
0.0047712
-0.00923119
0.00332199
0.0059092
0.00844128
-0.00844128
0.00812268
-0.00812268
0.000642346
0.00780847
-0.00845081
0.0287733
-0.012258
-0.0165153
-0.00405098
-0.00615436
0.0102053
0.0062974
-0.00574691
-0.000550437
-0.0222898
0.00600353
0.0162862
0.0107581
-0.0330479
0.00359742
0.00478049
-0.0083779
0.00472967
0.00162168
-0.00260817
-0.00466688
-0.00347126
0.0154757
-0.00419468
-0.00544834
0.00964302
0.00545652
-0.00328495
-0.00217157
-0.00539551
-0.00195402
0.00734953
-0.0115301
0.0046494
0.00688075
-0.0112378
0.00747842
0.00375941
-0.00441615
0.00708749
-0.00267134
0.000285234
-0.00470138
0.0127359
-0.0101013
-0.00263464
0.0101514
0.00147637
-0.0116278
-0.00872128
-0.00116027
0.00988155
-0.00513267
-0.00358861
-0.00168501
-0.00705734
0.00874235
0.0021313
-0.00691141
0.00478011
-0.000435488
0.00605434
-0.00561885
-0.000968859
0.00594727
-0.00497841
-0.00399606
-0.00418303
0.0081791
0.00909899
-0.00464504
-0.00445394
-0.0120546
-0.00257461
0.0146292
0.0125717
-0.0066953
-0.00587639
0.00536389
0.00653183
-0.0118957
-0.00698585
0.00706003
-7.41813e-05
-0.00625232
0.00694575
-0.000693432
-0.00761446
0.0118179
-0.00420343
0.00724043
-0.000201444
-0.00703898
0.00814268
0.000222366
-0.00836505
0.00960311
-0.00278973
-0.00681338
0.00169368
-0.0069809
0.00528722
0.00207745
-0.00718099
0.00510354
0.00581483
-0.00159638
0.00661197
-0.00501558
-0.00792713
0.000848584
0.00707855
-0.0184789
0.0265348
-0.0080559
0.00179128
-0.00540565
0.00361437
0.00320172
0.00490534
-0.00810706
-0.00694046
-0.00418396
0.0111244
0.00317744
-0.0101179
0.00609246
-0.000390436
-0.00570202
0.00829353
-0.00220107
0.0187767
0.00999661
0.00491205
0.00415376
-0.00906581
0.010744
-0.0103851
-0.000358893
0.00998972
-0.00998971
0.00592237
0.00355205
-0.00947442
-0.0055987
-0.00199323
0.00759193
0.0145564
0.0245652
-0.0391215
-0.0028767
0.00830428
-0.00542758
0.0014517
0.00642231
-0.00787401
0.0160832
-0.0135855
-0.00249769
-0.00457432
0.00126001
0.00331432
0.00820959
0.00284848
-0.0110581
-0.00300352
0.00654894
-0.00354542
0.00714993
0.00507839
-0.0122283
0.00112298
0.0062416
-0.00736458
-0.00294737
-0.00632061
0.00926798
0.000582729
0.00677807
-0.0073608
-0.0276222
0.0451506
-0.0175283
0.034489
-0.0621112
-0.00866664
0.00161133
0.00705531
-0.00464277
-0.00402387
-0.00921419
-0.00221654
0.0114307
0.00833612
-0.00468314
-0.00365298
-0.0116712
0.00660477
0.00506645
-0.00720723
0.0107813
-0.00357404
0.0015865
-0.00722879
0.00564229
-0.00315226
-0.00298906
0.00614132
-0.00846467
0.00135654
0.00710814
0.00147711
0.00192009
-0.0033972
-0.00309232
-0.00146542
-0.00226
-0.00612471
0.00838471
0.0097444
-0.00869557
-0.00104883
0.00948278
-0.0111678
0.01101
-0.0083352
0.000502876
0.00449272
-0.00499559
0.00614213
-0.00563926
-0.0265377
0.034444
-0.00790628
-0.0206946
-0.00584312
0.00229099
0.00584165
-0.00813263
-0.00911296
0.00920106
-8.80997e-05
-0.00533079
-0.00378217
0.0106772
-0.00727271
-0.00340454
0.00668532
-0.0118029
0.000998921
-0.00823988
0.00724096
-0.00408032
0.00757088
0.00626024
-0.0103406
-0.00835415
-0.00477856
0.0131327
-0.00722963
-0.00401402
0.0112437
-0.0125729
0.00551556
-0.00784118
0.00384512
0.0014941
0.00407614
-0.00557024
0.00510062
-0.0056474
0.000546781
0.00301577
0.00208485
-0.00107484
0.00813139
-0.00705655
0.00564231
-0.00727561
0.0273997
-0.000578514
-0.0268212
0.0435945
-0.0161948
-0.0325775
-0.00602586
0.0101671
-0.00885971
-0.00130739
0.00721974
0.00789106
-0.00561485
-0.0022762
0.00165675
-0.0100598
0.00444492
0.00149562
-0.017549
0.00569641
0.00335572
-0.00905212
-0.00796062
0.00940164
-0.00144102
-0.00617305
-0.00154174
0.00771479
0.00335793
0.00682347
-0.0101814
0.00672339
-0.00541999
-0.00130339
0.00362381
0.00232072
-0.00594453
-0.0209462
-0.0284876
0.0494339
0.00697591
-0.0098526
-0.00556296
0.0112781
-0.00571517
-0.0082929
0.00185885
0.00643404
-0.000348023
-0.00947783
0.00982585
0.0100819
0.00102691
-0.0111089
0.00388311
0.00343767
-0.00732078
0.00788941
-0.0104909
0.00260145
0.00654501
0.000711741
-0.00725675
0.130471
-0.0479605
-0.0825109
9.82353e-05
0.00950487
0.00824092
0.011242
0.00480798
-0.01605
-0.00560937
0.0118012
-0.0061918
0.00200563
0.00595927
-0.0079649
-0.00807918
0.00339666
0.00468252
-0.000906955
-0.00607889
-0.00859734
0.0184595
-0.00986219
-0.00338111
-0.00515451
0.00853562
-0.00208582
0.0105056
-0.00841977
0.00476669
0.00800125
-0.0127679
0.00841076
-0.00948561
0.00107484
0.0107263
-0.00802649
0.0101807
-0.00702855
-0.00315219
0.00272742
-0.00970236
0.00697494
-0.00438797
0.00711539
0.000596779
0.006678
-0.00727478
0.010614
-0.00584733
0.00529077
0.00441791
-0.00970868
0.00587303
0.00253773
-0.00385247
0.00972551
0.010539
-0.00675502
0.00978109
0.00733051
-0.00438361
-0.00169688
0.0088468
-0.0107538
0.00783538
-0.0214633
0.0051949
0.0162684
-0.0136552
-0.00780811
-0.0109487
0.00822209
0.0027266
-0.0100726
-0.000876099
0.000206829
0.00532017
-0.005527
0.00211277
-0.00690817
0.00479539
0.0314642
0.0196277
-0.0510919
-0.0308332
-0.0174128
0.000631019
0.00249118
0.0032486
-0.00573978
0.00470324
0.000468672
-0.00403047
0.0126222
-0.00859172
0.0016243
-0.00739881
0.00577451
-0.0108969
0.0070031
0.00389379
-0.00687861
0.00244458
0.00443403
-0.00587166
0.00728689
-0.00141523
0.00436224
0.0134967
-0.0178589
0.00984771
0.00570616
0.00779053
-0.00610197
0.0108966
-0.00479462
-0.00777031
-0.00329769
0.011068
-0.00432446
-0.00445643
0.0087809
-0.00207866
-0.00648602
0.00856468
0.00192792
-0.00884087
0.00691295
0.00773532
-0.010525
0.0173626
-0.00563382
-0.0117288
0.0100048
0.00526141
-0.0152662
0.00929667
-0.036337
0.0270403
0.00120393
-0.00975207
0.00854814
-0.00544519
0.0115298
-0.00608457
0.00954599
-0.00112902
-0.00841697
-0.00118976
-0.00840179
0.00959155
0.00923838
-0.00786526
-0.00137312
0.000860492
0.000933969
0.0028282
-0.00376217
0.0141029
-0.00409814
0.00649844
0.0076045
0.0132645
0.00167083
-0.00674196
0.00507113
-0.00633069
0.00709425
-0.000763552
-0.00202772
-0.00430297
-0.000449509
-0.00882165
0.00927116
0.00970895
-0.00444754
-0.00170558
-0.0101921
0.0118977
-0.0103893
0.00868371
-0.00509274
0.00952093
-0.00442819
-0.00677295
-0.00298675
0.0097597
-0.0174602
0.0121189
0.00534132
0.0109475
-0.0142929
0.00334535
-0.03919
-0.0179251
0.0748963
0.055575
0.0113475
-0.00282127
-0.00852623
0.0187372
-0.0127394
0.00937856
0.00924606
-0.0186246
0.0103535
-0.00806248
0.00213033
0.00822313
-0.00672409
0.00885441
-0.00483108
-0.00712729
0.0119584
-0.00354165
-0.00306722
0.00660886
-0.0373799
0.0207364
0.0166435
0.0321572
-0.029265
-0.00289225
-0.00182731
-0.0020595
0.00388681
-0.0357587
0.0233803
0.0123785
0.00622308
-0.0274576
0.0212345
0.000239477
-0.0112987
0.0110592
0.00162819
-0.0121093
0.0104811
-0.0140319
0.00680988
0.00722203
-0.00413146
0.00746739
-0.00333593
-0.00546266
0.0108265
0.00710903
-0.00216477
0.00671419
-0.00454942
0.00239231
0.00354334
-0.00593564
-0.00728168
-0.00189705
0.00917872
0.00354268
-0.00640982
0.00286714
-0.00195295
0.0124896
-0.0105366
0.00696588
0.00737232
-0.0143382
-0.00217076
-0.00811919
0.0102899
0.00540965
-0.00966404
0.00425439
0.00537898
-0.00466901
-0.000709977
-0.0019271
-0.00489646
0.00345188
-0.00594707
0.00551158
-0.00805517
0.00760566
-0.0081601
0.000922007
0.00723809
-0.00857495
0.00914051
-0.000565558
-0.00664703
-0.00383419
-0.00873871
-0.0110638
-0.00274457
-0.00744755
-0.010359
-0.0012783
-0.00616925
0.00536877
-0.00703985
0.00167108
0.00748154
0.000700427
-0.00504421
0.00868152
-0.00893355
0.000252027
0.00204363
0.00663789
-0.0118601
0.00314637
0.00871373
-0.00589257
-0.00550845
0.011401
-0.0215987
0.0123726
0.00922604
-0.014336
-0.0072627
-0.00411736
0.0106548
-0.0065374
0.00490212
0.00659696
-0.0114991
0.00166976
-0.00861841
0.00694865
0.0277234
0.00822393
0.0339464
0.142661
-0.238632
-0.19066
-0.0019289
-0.00660538
0.00853428
-0.00599761
0.0040687
-0.00595928
0.0118222
-0.00586291
-0.00183623
0.00367799
-0.00184176
0.017224
-0.0139341
-0.00328989
0.000783444
-0.00578079
-0.00803034
-0.0349521
0.0429824
0.0336913
-0.0417217
0.0112267
-0.0203525
0.00912582
0.00515862
0.00581535
-0.010974
0.0193172
-0.0119549
-0.00736234
-0.0105091
0.0173001
-0.00679094
-0.0123041
0.0268127
-0.0145086
0.0160137
0.0323022
-0.00548949
0.00394852
0.00408179
-0.00803031
0.0188384
0.0223968
0.0395293
-0.0212738
-0.0182554
0.00923264
-0.011316
0.00208337
-0.00868797
0.00969987
-0.00101191
-0.0249432
-0.00251438
-0.0129877
-0.0195762
0.0170618
0.0169384
-0.013857
-0.00308141
-0.0287031
-0.035251
0.0639541
-0.0637347
0.0376017
0.026133
0.0164412
0.000255169
-0.0166964
-0.00768743
0.00420601
0.00348142
0.002972
-0.00489845
0.00192645
0.00297069
0.00247215
-0.00544285
0.0059427
0.00559573
-0.00133642
-0.00425931
0.0034899
-0.00445876
-0.0033887
0.00401315
-0.00755519
0.00354205
0.00727914
-0.0100827
0.00885561
0.00122713
-0.00623651
-0.00384622
-0.00256479
-0.00647138
0.00903617
0.000754393
0.00826499
-0.00901939
0.00940381
-0.00864942
-0.00176907
0.0112519
0.00924091
0.00017638
0.00507501
-0.00525139
-0.00441468
0.00459106
0.0120121
0.00268684
-0.0146989
-0.0042499
-0.014229
-0.0115422
-0.00197855
-0.00750053
0.00947908
0.00572902
-0.00770757
-0.00124412
-0.00625641
0.00142112
-0.0105913
0.00917014
0.00420377
0.0056418
-0.00984557
0.00999187
-0.00458222
-0.00394981
0.00420096
-0.000251148
0.00973802
-0.00425492
-0.0054831
-0.00748684
0.00748684
-0.0158575
-0.0225832
0.0384407
-0.00773753
0.00710366
0.000633868
-0.00412671
-0.0018709
0.0262098
0.00336579
-0.0295756
0.0131748
0.013035
-0.0221297
0.0254955
0.00619327
-0.00407786
-0.00211541
-0.00166413
-0.00516941
0.00683354
0.00452914
-0.00766504
-0.00386511
0.0108226
0.00611579
-0.00105181
0.0118744
-0.009156
0.0152718
0.0107162
0.000581284
-0.0112975
0.00531389
0.00540235
-0.0137623
0.0143436
-0.00538194
0.00700624
0.00548598
0.00534859
-0.0108346
-0.00575186
-0.00379841
0.00949482
-0.00177123
0.00430867
-0.00253745
0.0029577
-0.00672919
0.0037715
0.0160181
0.00141326
-0.0174314
0.00367297
-0.0113094
0.0076364
-0.00337577
-0.003276
0.00665178
-0.0060758
0.00594585
0.000129956
-0.048936
0.0674739
-0.0185379
0.00576514
-0.00981612
0.00918129
-0.00286224
-0.00631905
0.00141098
0.049265
-0.0414312
-0.00783384
0.00383099
0.00237465
-0.00620564
0.00543818
-0.00160718
0.00647096
-0.00409631
0.00858372
-0.0222389
-0.0449667
0.0261941
0.0187726
0.0380816
-0.0151677
-0.022914
-0.0208198
0.0235874
-0.00276767
0.0201817
-0.000306829
-0.0198749
0.00892581
0.00540388
0.010554
-0.00715121
0.0125551
-0.0271646
0.0123562
0.0148084
0.00862075
-0.009452
0.000831249
0.00337293
0.00524782
-0.00641424
-0.0038833
0.0102975
0.00548345
0.005785
-0.00963747
-0.0022424
-0.00563248
0.00787488
-0.00948892
0.00480426
0.00468466
-0.0117313
0.00273209
-0.010632
0.0078999
-0.00941224
0.00710152
0.00231071
-0.00668015
0.00400693
-0.00664676
0.00263983
0.00249964
-0.0101853
0.0076857
-0.00351064
0.00351064
-0.00115469
0.00777154
-0.00661686
0.00242876
0.0058476
-0.00827636
0.0190114
0.0205179
0.00164585
0.00868824
-0.0103341
-0.00334677
0.00334677
0.00397718
0.00349817
-0.00221874
0.00619591
-0.00899104
0.0104122
0.000956652
-0.00619901
0.00524236
0.00618649
-0.00128254
-0.00490396
0.00714314
0.00369298
0.00328069
-0.00697367
-0.00327134
0.0068925
-0.00362116
-0.00566134
0.00582174
-0.000160396
0.00611529
-6.6996e-05
-0.0060483
-0.00645602
-0.00532509
0.0117811
-0.01064
0.00177628
0.00473562
-0.0065119
-0.00957052
0.0224612
-0.0128907
0.0014905
0.00670527
-0.00819577
0.00795452
-0.00646403
0.00260309
-0.00260309
0.00783767
0.0030765
-0.0109142
0.00360608
0.00423159
-0.0045498
0.0076263
0.0100027
-0.00795908
0.00210969
0.00797225
0.0101361
0.00762423
0.0098643
-0.00631906
-0.00354524
0.000721481
-0.00889824
0.00817676
0.0085043
-0.00778282
-0.00145753
0.00771907
-0.00626154
0.004891
-0.00634853
0.00491959
0.00108979
-0.00600939
0.0184427
-0.0159501
-0.00249258
-0.00793356
0.0198262
-0.0118926
0.0283526
-0.0109255
-0.017427
0.0264207
0.00193189
0.0213766
-0.00865371
0.00197647
-0.000127917
0.00736648
-0.00723856
0.00653198
-0.00649618
-3.58018e-05
0.0110934
-0.00778479
0.00241138
-0.0107655
0.0135048
0.00248898
-0.00248898
0.00474062
-0.00562232
0.000881704
-0.00678128
0.00891259
0.00836263
-0.0108849
0.022786
-0.0082297
0.00678954
-0.0242166
-0.0324463
0.00922017
-0.00262224
-0.00659793
0.00249608
-0.00919761
-0.000255706
0.00945332
-0.00974446
0.00997918
-0.000234726
0.0316264
0.00187531
-0.00528817
0.00528817
-0.00580202
0.00608725
-0.00657929
0.00498291
-0.0332392
-0.00226546
0.0355046
-0.0128688
-0.0203704
0.0339864
-0.0362518
0.00590841
-0.00590839
-0.0184057
-0.00812017
0.0265259
-0.0253127
0.0165972
0.00871548
0.00175281
-0.00175281
0.00345966
-0.00345965
0.00576905
-0.000921377
0.00339806
0.00272059
-0.00611865
0.00489216
0.00451187
0.00555074
0.00204224
-0.00759299
0.00161302
0.00576374
-0.00737676
0.00122786
0.00692725
-0.00815511
-0.0388709
0.0204651
0.00378262
0.00345328
-0.00723589
0.00610946
-0.00726886
0.0011594
-0.00399038
0.00657136
-0.00258098
0.00211908
0.00710564
-0.00606672
-0.00103893
0.00330145
0.00380419
-0.00680636
0.000200974
-0.00240335
0.00240336
-0.0230036
0.041151
-0.0181474
-0.0350674
0.0112476
0.0238198
-0.0313016
-0.0037658
0.0380459
-0.0267983
0.00648542
-0.00183602
0.00108991
-0.00757031
-0.00421292
0.0117832
-0.0116008
0.00867928
-0.0128922
0.0209594
-0.0149665
-0.0059929
-0.000759482
-0.0322667
0.0173002
0.0075124
-0.00388859
-0.0025692
0.0025692
0.00829419
-0.0154454
-0.00995431
-0.00262992
0.0125842
0.0263723
-0.0330727
0.00670046
-0.010602
0.0369742
-0.00258525
0.00877385
-0.0061886
-0.0100415
0.00745625
-0.00368555
0.00721829
-0.00353274
0.00370048
-0.00600105
0.00230056
-0.0122378
0.0124773
-0.0076004
0.00153368
-0.0027094
-0.00693099
0.00125422
0.00795111
-0.00920533
0.00749488
-0.00624066
-0.0161515
0.0179029
-0.00175135
0.00679612
-0.0159768
0.00918072
0.0072576
-0.0101198
-0.00234368
0.00234369
0.00123202
-0.00123202
0.0167896
-0.0139902
-0.00279935
0.0075546
-0.00577238
-0.00178222
0.00831807
-0.000763473
-0.0078971
0.00174274
-0.00372125
-0.00417586
-0.00731534
0.00393956
-0.00420978
-0.00752153
-0.00954057
-6.20061e-05
-0.00459117
0.00465317
-0.0373538
0.0162816
0.0210722
-0.0273081
-0.00845067
0.000718576
-0.00659023
0.00663016
-0.000514864
-0.00354384
-0.00549827
0.00904211
0.00415262
0.0101869
-0.0143396
0.00748848
0.00319762
-0.0106861
0.00385346
-0.00615818
0.00230472
-0.000780886
0.00463434
-0.00297265
0.00762848
0.00735898
-0.000434052
0.015242
-0.014808
-0.0165856
-0.00195988
0.00195987
0.000243943
-0.00220382
-0.0137505
0.00811671
-0.00545362
0.00659893
-0.00114531
-0.000237607
-0.00521601
0.00186969
-0.00186969
0.000136139
-0.00560387
0.00546773
-0.0044224
0.00691358
0.00696258
-0.0074086
0.000446019
-0.0283517
0.0318656
-0.00351394