/*--------------------------------*- C++ -*----------------------------------*\
  =========                 |
  \\      /  F ield         | OpenFOAM: The Open Source CFD Toolbox
   \\    /   O peration     | Website:  https://openfoam.org
    \\  /    A nd           | Version:  6
     \\/     M anipulation  |
\*---------------------------------------------------------------------------*/
FoamFile
{
    version     2.0;
    format      ascii;
    class       volVectorField;
    location    "1700";
    object      U;
}
// * * * * * * * * * * * * * * * * * * * * * * * * * * * * * * * * * * * * * //

dimensions      [0 1 -1 0 0 0 0];

internalField   nonuniform List<vector> 
29874
(
(7.524 0.0626543 1.07852e-16)
(5.38707 0.0281781 -9.97339e-17)
(5.42402 -0.121062 2.01823e-16)
(7.10983 -0.0800714 -1.20266e-16)
(7.80369 -0.118765 0)
(7.42363 0.00415255 -9.66632e-17)
(4.77377 0.094495 6.67702e-18)
(7.1241 0.0172231 1.94216e-18)
(7.44885 -0.00413527 -1.39301e-17)
(7.19173 0.211795 -1.61631e-17)
(7.20016 -0.115778 0)
(7.23028 0.102924 -3.53935e-17)
(4.44449 -0.0538103 9.17794e-17)
(8.26534 0.0483949 0)
(6.71919 0.203223 1.06153e-16)
(6.60153 0.137173 0)
(4.25737 -0.0199505 0)
(7.79713 0.211891 -1.38727e-16)
(4.96172 -0.0407688 -1.45309e-16)
(7.99515 -0.0695106 -2.87534e-18)
(7.11891 -0.0228863 3.4307e-17)
(7.07113 -0.0257059 1.11951e-17)
(7.03498 0.0593166 -9.12312e-17)
(7.52443 0.0363757 0)
(5.75738 0.294215 0)
(7.76479 -0.00898779 -2.59042e-17)
(7.96462 -0.04316 -8.89414e-17)
(5.06745 0.120266 1.20008e-16)
(5.32119 0.122982 2.09273e-17)
(4.94006 -0.1181 4.70835e-17)
(8.06239 -0.0954041 -2.77345e-17)
(5.33766 -0.0984652 -2.68819e-16)
(7.84826 0.0548863 0)
(5.1826 -0.0332121 -8.34831e-17)
(7.39511 0.131956 3.32729e-17)
(5.48297 0.109516 -1.39446e-17)
(7.04326 -0.00295013 0)
(7.28781 0.313982 -8.54188e-18)
(7.50944 -0.10091 -6.34231e-17)
(5.34801 0.0241966 0)
(7.0004 0.0103861 -3.83041e-17)
(7.02987 -0.0194957 7.8199e-17)
(7.30972 0.007937 0)
(5.62931 0.045715 -7.56126e-18)
(8.02197 -0.135249 8.16072e-17)
(7.43404 0.050113 0)
(4.74371 -0.149887 0)
(8.4796 0.0407797 0)
(7.2517 -0.0599534 4.23774e-18)
(7.1662 -0.113173 -6.01374e-17)
(4.48402 0.140887 -9.21795e-17)
(7.87401 -0.0991061 0)
(6.77005 -0.000720439 -4.45932e-17)
(6.59886 0.0700732 3.97773e-17)
(7.66775 0.15767 -1.84248e-17)
(7.71228 -0.00896321 5.20547e-17)
(4.68735 -0.0786131 0)
(8.1467 0.0318855 0)
(7.12334 -0.0634494 0)
(7.04432 0.0837726 -8.65574e-18)
(7.27214 -0.129375 9.99127e-19)
(7.23712 0.0153639 -7.17768e-17)
(7.22255 -0.232983 -1.01183e-18)
(7.48574 0.0146742 0)
(5.81297 0.0536909 -4.71094e-17)
(7.4673 0.0318958 -3.61166e-17)
(7.74812 0.144255 -1.8936e-20)
(7.60262 0.00936156 7.31688e-17)
(7.63947 -0.0916355 3.94594e-17)
(7.48925 -0.079743 3.86225e-17)
(8.25145 -0.138846 4.03405e-17)
(7.61456 0.017558 5.28875e-17)
(7.53144 0.104031 -3.20883e-16)
(5.65334 -0.133028 3.97839e-16)
(7.03202 -0.128961 3.90665e-17)
(8.0644 0.121991 0)
(7.80202 -0.108571 -1.66849e-17)
(8.00205 -0.0982599 1.68188e-17)
(4.99746 0.112467 6.43095e-16)
(7.35589 0.0999035 -1.79158e-16)
(5.38129 -0.0941112 -9.44038e-17)
(7.1197 -0.151391 9.76303e-19)
(6.96888 0.154124 0)
(7.43412 0.192144 -3.77494e-17)
(4.65039 -0.364086 0)
(5.10676 -0.218176 -3.93627e-17)
(7.36281 0.00835577 3.25121e-19)
(7.0353 0.0405968 1.68816e-17)
(7.93801 -0.10632 9.5305e-17)
(7.54359 -0.0652519 5.05947e-17)
(3.85795 -0.698438 -4.32615e-18)
(7.00557 0.0774524 4.54248e-17)
(6.95765 0.130896 -2.61854e-17)
(7.45771 -0.0330438 2.82779e-17)
(7.19396 -0.123369 0)
(6.68989 0.0989089 0)
(7.09199 -0.223767 -2.01383e-17)
(4.6695 -0.00397949 8.64283e-18)
(3.53385 -0.566191 -2.12232e-17)
(6.53479 -0.0647535 1.2072e-17)
(7.5239 0.0489235 -3.78361e-18)
(7.01991 0.0931508 1.11825e-17)
(6.99089 0.0897526 0)
(7.35652 0.0846129 -8.02938e-17)
(7.10499 0.0923962 -6.03413e-17)
(3.57427 -0.396162 3.88806e-17)
(3.97896 -0.512615 -2.95008e-17)
(7.4975 0.0077949 6.04433e-18)
(7.5858 0.0142642 0)
(7.2428 -0.128964 -9.12102e-18)
(3.92425 0.131623 -2.66231e-17)
(7.94046 -0.17131 8.37932e-17)
(7.99934 -0.17281 -8.9766e-17)
(6.96915 0.119331 0)
(6.97515 0.132089 0)
(6.9845 0.102012 -5.19073e-17)
(6.87595 -0.297372 8.27405e-18)
(7.23006 -0.178271 1.02533e-16)
(0.447586 0.0842986 -6.38351e-17)
(7.04312 0.0845363 2.37471e-17)
(6.97587 0.129743 4.00455e-17)
(8.2337 -0.198277 -1.23209e-16)
(7.19141 -0.102363 -9.84835e-20)
(7.14917 -0.137968 3.76458e-18)
(7.24215 -0.131348 7.61398e-18)
(6.65458 0.159162 -4.33849e-18)
(7.4681 -0.141318 0)
(7.20684 0.230829 -1.91407e-17)
(7.02362 0.108914 -4.67081e-17)
(6.56362 -0.264483 4.08403e-17)
(6.99954 0.00693546 0)
(6.7524 -0.25466 2.92459e-17)
(7.13713 -0.117057 -5.13112e-17)
(7.07984 0.0942732 9.3357e-17)
(7.28971 0.116787 3.77325e-17)
(7.1111 0.056037 -3.22092e-17)
(7.25399 0.117939 7.28297e-17)
(7.03465 0.00782667 -9.53305e-18)
(7.34937 0.269863 7.9887e-19)
(7.09821 -0.160819 5.98288e-17)
(7.70121 -0.263528 -7.0816e-18)
(7.75952 -0.0388581 0)
(7.01295 -0.194717 -1.61544e-17)
(7.47429 0.265782 -2.2647e-17)
(7.21171 -0.0573342 -4.99284e-17)
(7.14788 0.187869 -8.11244e-18)
(7.36143 0.0328327 3.2841e-17)
(7.31734 0.0707541 5.56967e-17)
(7.00345 0.00647911 -3.02063e-18)
(6.62566 0.123999 -5.74897e-18)
(7.78988 0.0914589 3.32525e-17)
(7.86809 -0.112762 9.9423e-18)
(6.47679 0.196924 0)
(6.95146 -0.0972939 1.29234e-17)
(7.3743 -0.0749777 2.42977e-17)
(7.02468 0.0595583 3.61628e-17)
(7.07301 -0.00993643 2.21736e-17)
(7.69305 -0.186197 -3.65816e-17)
(7.92666 -0.0953915 3.812e-18)
(7.94763 -0.13144 0)
(7.70039 -0.13726 -6.95004e-17)
(7.22713 0.103156 1.88561e-16)
(6.8986 0.152111 -6.33592e-16)
(7.65187 -0.16967 0)
(7.75963 -0.176681 0)
(7.74559 -0.15633 7.0702e-18)
(7.68495 -0.166741 0)
(7.17548 -0.066782 0)
(7.06548 -0.0126788 -5.72323e-17)
(7.49834 -0.180448 2.08926e-17)
(7.75421 -0.109035 0)
(7.67322 -0.156831 0)
(7.59103 -0.118745 -1.17255e-17)
(4.43326 -0.018504 -3.61956e-17)
(4.11808 0.102899 7.13698e-18)
(7.49249 -0.138686 0)
(7.30199 -0.163698 1.76006e-17)
(1.28059 -0.109074 -4.27018e-17)
(6.94051 0.0280524 -1.54794e-16)
(6.78987 -0.0176589 7.91181e-17)
(1.26666 -0.0648872 0)
(1.24805 0.0224254 0)
(4.99935 -0.0788523 -2.33878e-17)
(6.92412 0.11751 -3.23972e-17)
(6.58429 -0.0294938 1.49423e-18)
(8.23532 0.0574653 -3.67527e-17)
(7.02965 0.129265 -1.01313e-17)
(7.01939 0.111393 -8.67068e-19)
(7.03394 0.079346 6.02287e-18)
(6.98373 0.124131 1.94464e-17)
(6.98613 0.0980269 1.4304e-17)
(8.32687 -0.12505 1.03885e-16)
(6.89728 -0.119155 7.72354e-17)
(6.71611 -0.203553 -4.0891e-17)
(5.19461 0.0275673 -4.43993e-17)
(7.07677 0.0693894 2.19717e-17)
(7.03781 0.0956275 4.64776e-17)
(7.61349 0.156965 0)
(1.33858 0.0201289 6.40232e-17)
(1.71403 0.0134841 0)
(7.73676 0.192254 7.43336e-18)
(8.08088 -0.0714597 0)
(7.63193 0.447704 -1.33702e-17)
(7.59821 0.27926 -1.40171e-16)
(6.97379 0.0899516 0)
(6.79424 0.113691 4.67556e-17)
(6.89728 0.0911249 6.9018e-17)
(7.36792 0.0840375 3.32737e-16)
(7.08852 -0.174159 -5.73454e-17)
(6.88205 -0.239862 -3.12785e-17)
(7.11989 -0.0106919 4.18537e-17)
(7.30934 0.0282561 -2.31708e-17)
(6.37561 -0.126286 -6.36557e-17)
(6.80726 0.0917797 -1.38729e-16)
(7.27179 0.212323 3.05859e-17)
(7.17063 -0.208343 -5.14775e-17)
(7.25571 -0.183472 -5.04906e-18)
(7.19463 -0.156551 -2.64149e-17)
(7.27251 -0.133253 1.66802e-17)
(7.44973 -0.13985 0)
(7.66016 -0.00150127 -9.97288e-17)
(8.28932 -0.0668618 -3.13539e-17)
(6.89762 0.0111956 4.81282e-17)
(7.4257 -0.0557749 -3.73496e-18)
(7.00126 0.0531241 -5.91843e-17)
(7.31802 0.0528137 0)
(7.60248 -0.0162679 7.4476e-18)
(7.45398 -0.123075 -7.39107e-18)
(7.796 0.163863 -2.86373e-17)
(6.99032 0.228782 -1.7693e-17)
(7.00368 0.0227825 0)
(7.00156 0.0441641 4.82814e-17)
(7.38207 -0.0831375 -1.15342e-17)
(7.25822 -0.0583242 1.07231e-17)
(6.80121 -0.0846935 4.15022e-17)
(6.92893 -0.077165 0)
(6.50392 -0.229593 0)
(7.75643 -0.112348 -2.08168e-17)
(7.58674 -0.130056 8.20973e-18)
(7.81569 0.077757 -7.62438e-18)
(8.01255 -0.0779726 5.84989e-17)
(2.51095 1.29351 -7.00973e-18)
(2.99592 -0.478715 7.41858e-18)
(6.12317 2.42169 -2.30578e-18)
(6.24303 2.46283 0)
(3.02537 -1.38574 1.31895e-17)
(2.94626 -1.36581 1.38037e-17)
(7.57003 -3.86433 4.95107e-18)
(6.63062 1.12682 1.49868e-17)
(7.68401 -1.39282 2.40048e-19)
(4.29196 -0.742003 -2.12622e-17)
(6.62024 1.63197 9.91167e-19)
(4.99539 -1.37147 -1.65826e-17)
(4.0113 -0.733535 0)
(7.08737 -0.310035 -7.32355e-18)
(3.25836 -0.464823 -2.22888e-17)
(4.12633 -1.39937 -1.48323e-18)
(0.635849 0.309265 6.8929e-17)
(7.73648 -1.34788 2.93677e-19)
(4.21187 0.166211 2.56673e-18)
(6.22844 -3.56289 1.28039e-18)
(4.02169 -0.428158 -3.73999e-19)
(4.12801 -1.4786 0)
(6.66023 -3.24714 1.63331e-18)
(6.88085 -3.39982 6.58663e-18)
(6.70636 -3.90494 2.64503e-18)
(6.78922 -3.8909 -1.57917e-18)
(6.28767 2.19453 -1.75965e-18)
(6.23375 2.29841 1.91637e-18)
(0.717405 -0.373576 0)
(3.17653 -1.35681 2.71176e-18)
(3.08774 -1.30237 -1.90495e-17)
(4.11366 -0.751087 2.0851e-17)
(6.11517 -1.69957 -1.10626e-17)
(6.63357 2.71335 2.92809e-19)
(6.11201 2.74118 1.03085e-19)
(6.06657 -4.08085 1.80025e-18)
(1.54619 0.597575 -1.7409e-17)
(6.08076 2.36753 -3.12426e-18)
(6.79106 -1.92381 0)
(6.90983 -1.8291 2.3331e-20)
(6.87092 1.74207 -3.71525e-19)
(6.79618 1.74309 0)
(6.47996 1.96114 -2.31291e-18)
(6.52823 2.00277 0)
(6.53584 1.03941 0)
(6.70142 1.8331 -1.17185e-18)
(6.76078 1.82883 1.01517e-18)
(3.27525 -0.594918 3.08929e-17)
(3.38633 -0.640975 3.02609e-17)
(5.93345 2.67747 -2.18622e-18)
(6.25942 2.46582 0)
(6.23707 2.47308 0)
(7.51609 -3.28288 4.7374e-18)
(7.40209 -3.59654 7.82019e-18)
(4.25284 -0.614162 0)
(4.26025 -0.316654 0)
(6.1357 -3.85907 1.84951e-18)
(4.79844 -1.1449 4.1691e-17)
(4.25156 -0.982651 -1.1823e-17)
(3.64942 -0.704641 -3.78933e-17)
(3.71584 -2.18659 3.25483e-18)
(6.31032 2.12183 0)
(3.65524 -1.58366 -3.83928e-18)
(6.2185 2.45913 3.6979e-19)
(6.24822 2.34591 -4.64649e-19)
(3.2323 -1.26297 9.74701e-18)
(6.79194 -0.386596 0)
(6.05638 -3.88724 0)
(2.88169 0.0256962 0)
(6.73858 -4.28404 1.89469e-18)
(6.74427 -4.24355 -9.15946e-19)
(6.07917 -3.94627 0)
(6.15747 -3.96662 -3.62865e-18)
(6.02931 -3.99526 1.80215e-18)
(4.13138 -0.405453 1.25664e-18)
(4.16216 -0.550514 2.47895e-21)
(6.92515 -3.07309 -2.6159e-19)
(6.22252 2.19703 3.05218e-19)
(6.19506 2.26142 4.66881e-18)
(6.84621 -3.60284 3.38486e-18)
(6.97604 -4.38279 0)
(3.16327 -1.50168 -7.39921e-18)
(3.10422 -0.313446 0)
(6.14656 2.2617 -5.00921e-18)
(6.13287 2.2986 0)
(6.11458 2.20552 0)
(7.06997 0.24874 -1.93957e-17)
(4.24789 -0.395115 -3.39613e-18)
(4.2553 -0.540062 -3.76721e-18)
(6.59762 0.499975 -7.57745e-17)
(6.70474 0.383527 -4.78149e-17)
(4.12048 0.882071 2.08023e-18)
(4.08424 1.02726 -2.59449e-18)
(6.80023 -4.22541 0)
(6.38581 -3.84384 1.63917e-19)
(6.27837 2.39007 0)
(6.34179 2.35338 0)
(6.31388 2.33132 0)
(6.31242 2.4043 0)
(3.0715 -1.19125 -5.45244e-18)
(5.94059 -3.98749 0)
(3.05809 -0.490112 9.96282e-18)
(3.1434 -0.485891 -6.37953e-18)
(3.11032 -0.410166 -1.76701e-17)
(3.0961 -0.532028 -5.19424e-18)
(6.42085 2.26171 4.98599e-19)
(6.37865 2.23337 3.65833e-18)
(6.87714 -4.30507 1.97568e-18)
(6.23903 2.4188 3.39277e-19)
(6.64805 1.52392 9.01291e-18)
(7.46216 -0.441245 0)
(6.99121 -2.62317 1.99689e-17)
(7.38616 -3.05951 4.31217e-18)
(6.46603 -2.2216 0)
(7.05859 -0.34258 3.03603e-18)
(3.27928 -0.340699 0)
(3.29727 -0.115909 0)
(5.75116 -0.772623 0)
(0.648012 -0.201619 6.30958e-17)
(6.96764 -2.88353 -6.48396e-19)
(2.84144 -1.89533 -1.12212e-18)
(7.32668 -2.88989 0)
(3.08448 -0.63946 4.59379e-18)
(3.07728 -0.838301 9.89035e-18)
(6.26809 2.44699 -7.1626e-20)
(6.25814 2.42951 -1.25626e-20)
(6.29493 2.43762 1.02704e-19)
(6.19036 0.329549 -7.76808e-17)
(3.48889 -0.16312 3.02666e-17)
(3.36003 -0.319923 2.17895e-18)
(3.5062 -0.323285 -3.35611e-17)
(3.37595 -0.154744 -2.29101e-18)
(6.99008 0.17022 1.94058e-17)
(7.04538 -0.248354 -3.09215e-18)
(3.52612 -0.0937723 -2.44055e-17)
(3.80829 0.0533661 -5.81228e-18)
(3.77653 -0.117213 1.07052e-18)
(3.6743 0.622142 0)
(3.87879 0.366752 2.59451e-17)
(2.99874 -1.17898 0)
(2.98301 -1.08356 6.87832e-21)
(6.60698 -0.561681 7.6351e-18)
(6.6581 -0.35509 3.21695e-18)
(6.2235 2.33493 -4.96814e-19)
(6.25137 2.37969 5.22907e-19)
(3.46009 -0.269572 2.03574e-17)
(6.38557 2.36097 0)
(6.41766 2.31789 0)
(6.40016 2.43265 0)
(7.12388 -3.64038 7.14277e-18)
(7.30866 -3.68487 0)
(2.90928 -0.459088 -6.35334e-18)
(7.2456 -3.07404 -6.84087e-18)
(6.98904 -3.27659 7.20916e-18)
(6.82125 -4.33302 0)
(6.77221 -4.29069 -1.99634e-18)
(6.83566 -4.29555 8.71729e-20)
(6.76426 -4.33464 0)
(6.72351 0.280774 0)
(6.75421 -3.76214 8.67239e-20)
(6.81151 -3.84077 1.63261e-18)
(6.8507 -3.69804 -1.61133e-18)
(6.43377 -0.416723 -4.02555e-17)
(6.45229 -0.535114 5.46956e-17)
(6.51918 -0.359412 -6.13265e-17)
(3.13453 -0.264163 5.51152e-18)
(3.22427 -0.167353 -5.68249e-18)
(3.1546 -0.164241 -2.87242e-18)
(3.21485 -0.271073 2.75826e-18)
(4.3977 -0.411667 -3.12315e-17)
(4.17371 -0.525994 1.08938e-18)
(4.29909 -0.543012 0)
(4.33282 -0.313738 1.89635e-17)
(6.84104 0.564517 1.79751e-17)
(3.29916 -3.09461 4.11342e-18)
(3.49841 -2.91393 1.80933e-18)
(3.37835 -1.82195 6.23181e-20)
(3.2284 -1.85905 -5.18739e-18)
(3.12089 -0.139644 -5.06466e-18)
(3.12638 -0.0218609 5.42761e-18)
(3.02888 -0.160723 0)
(4.14234 0.489366 0)
(3.8773 0.781769 9.07794e-18)
(4.33939 -0.233683 0)
(4.13226 -0.0237799 0)
(4.05881 -0.214635 0)
(4.35488 -0.10275 0)
(6.89785 -1.64897 6.33623e-20)
(6.89707 -1.7147 0)
(6.53609 -3.68881 1.50558e-18)
(6.5632 -3.79789 0)
(6.64842 -3.72352 2.34945e-19)
(6.48529 -3.71115 -4.61468e-18)
(4.04777 1.10059 0)
(6.59977 -3.33396 -6.22686e-18)
(6.36784 -3.49222 0)
(4.07976 1.58259 -1.18114e-18)
(4.13811 1.12873 0)
(3.72727 -0.381546 -2.42006e-17)
(3.96606 -0.229899 0)
(3.81238 -0.18701 0)
(3.94368 -0.380494 2.98201e-17)
(3.41899 -1.14395 4.17503e-17)
(3.36037 -1.26976 -1.49773e-17)
(6.92828 0.138278 -4.77571e-18)
(6.5745 -0.062068 9.19845e-17)
(6.53109 -0.16905 0)
(6.48813 -0.125382 9.16546e-17)
(6.61229 -0.147085 0)
(3.36067 -1.03868 -1.80978e-17)
(3.43743 -0.900984 0)
(3.23875 -0.999262 0)
(4.47164 -1.09235 -2.51212e-17)
(4.63603 -0.722438 -1.12955e-17)
(4.45304 -0.822114 1.1674e-17)
(6.53476 -3.92559 1.2764e-18)
(6.56317 -3.84786 2.09464e-18)
(6.62469 -3.87573 -1.35679e-18)
(6.49908 -3.8593 -2.89969e-18)
(7.0742 -3.57535 -9.088e-18)
(6.95139 -3.44947 -5.86059e-18)
(7.1141 -3.48104 2.10174e-18)
(6.92359 -3.55884 -4.15291e-18)
(4.11251 -1.04468 0)
(4.10846 -1.13535 0)
(4.04857 -1.03692 -3.72451e-19)
(6.10602 2.80012 4.21454e-20)
(7.34402 -0.180996 -2.90744e-17)
(7.16312 -0.21138 3.37458e-18)
(7.23736 -0.200911 1.81005e-17)
(7.2705 -0.18311 -1.23183e-17)
(6.36768 2.94438 -6.93019e-20)
(5.25161 -0.144328 5.14593e-17)
(6.11095 2.36973 -1.63499e-18)
(6.12479 2.39658 -7.61774e-19)
(6.14376 2.33542 1.35794e-18)
(3.42162 -1.3962 0)
(3.342 -1.5478 0)
(3.60778 -1.41509 2.60478e-17)
(6.10057 -1.35093 6.39356e-18)
(3.55143 0.377283 0)
(3.72439 0.378649 2.54247e-19)
(3.65353 0.298418 0)
(3.62831 0.509806 -1.08002e-17)
(6.93731 0.430787 2.2791e-17)
(3.087 -0.922093 2.87762e-18)
(2.99308 -1.03243 -6.48811e-18)
(2.99781 -0.961472 3.42417e-18)
(3.08729 -1.0171 0)
(8.02724 0.196412 -6.55611e-17)
(0.578894 -0.0937374 1.22394e-16)
(7.74951 -0.343563 4.47245e-17)
(8.06979 -0.0250628 0)
(1.80652 -0.157614 -3.38289e-17)
(7.08533 0.287866 -1.74227e-17)
(4.66522 0.062838 -8.14861e-17)
(6.99738 0.0212331 3.50886e-17)
(7.0074 0.107894 -2.27832e-17)
(7.00661 0.082449 -4.5648e-17)
(7.95901 -0.225967 0)
(3.36203 -0.442266 -3.33637e-18)
(6.75739 0.282982 0)
(6.80174 0.236484 1.81019e-17)
(6.07749 -0.088872 0)
(6.31269 0.192288 -9.05568e-17)
(6.20457 0.237989 4.80913e-17)
(6.51169 0.0752794 2.55213e-17)
(6.4405 0.118391 0)
(2.89819 -0.27275 7.10908e-18)
(6.91813 0.176377 -4.26726e-17)
(6.896 0.209941 -4.71138e-17)
(5.40663 -0.168124 -3.18478e-17)
(6.95763 0.295719 1.75541e-17)
(6.94683 0.348013 1.18325e-17)
(2.89044 0.520591 2.75657e-17)
(7.00935 0.0754442 4.03612e-17)
(7.69302 0.332517 -1.92165e-17)
(0.427492 0.121451 -7.91723e-17)
(7.00033 0.143591 -1.4002e-17)
(6.97 0.229491 2.84113e-17)
(7.19069 0.280745 0)
(5.44031 -0.328562 -6.32834e-17)
(7.39496 -0.205646 9.1138e-17)
(3.05702 -0.302554 3.59906e-18)
(3.25363 -0.214368 -1.92544e-17)
(6.88972 0.877275 1.21346e-17)
(7.01207 0.11847 3.01065e-17)
(7.31919 -0.251575 -2.41553e-17)
(7.37549 -0.268213 -8.44525e-17)
(7.32524 -0.323142 2.77073e-17)
(7.61282 -0.195943 4.09267e-17)
(6.57301 -0.397179 7.08414e-18)
(6.5523 -0.498341 -9.76197e-18)
(7.11036 -0.178994 8.13415e-19)
(7.09468 -0.217611 2.36832e-17)
(7.055 0.207058 -1.041e-17)
(6.36531 -0.287744 -6.9169e-17)
(6.70982 -0.410097 0)
(6.6823 -0.524952 0)
(6.9885 -0.155618 -4.69009e-18)
(6.88648 -0.162901 0)
(0.405634 0.117768 0)
(3.0433 0.474806 1.61161e-17)
(7.55151 -0.147402 3.16602e-17)
(7.63519 -0.121426 5.68529e-18)
(7.25329 0.396064 1.84954e-19)
(7.07268 -0.220604 0)
(7.1311 -0.189475 0)
(6.69824 0.226916 -1.71267e-17)
(7.57515 -0.38202 0)
(7.00244 0.0689717 -2.17297e-17)
(6.99692 0.0859157 7.8146e-17)
(7.01223 0.176317 -3.4808e-18)
(7.37967 -2.87715 1.51427e-17)
(6.8569 -2.3716 -1.17265e-17)
(6.86894 -2.26346 1.08741e-17)
(5.68159 0.0865382 3.8492e-17)
(7.00977 0.151734 0)
(4.93681 -0.112787 -2.31816e-16)
(7.36418 -0.351587 0)
(6.70051 -0.0720822 -2.42007e-17)
(6.46899 -0.0787983 1.14195e-17)
(6.34749 -0.0818593 1.1296e-17)
(7.1097 0.328994 -2.81087e-17)
(3.08559 -0.541762 0)
(7.46456 -0.375216 8.15125e-18)
(7.41906 -0.3418 -3.86006e-17)
(4.767 -0.141013 0)
(4.95901 -0.130531 0)
(2.94715 -0.937474 9.08281e-20)
(7.80648 0.228232 -9.66278e-18)
(7.22267 0.217338 -4.05011e-17)
(7.29406 -0.033945 0)
(8.36173 -0.0587068 -1.06582e-16)
(7.1606 0.364933 0)
(7.12668 0.323767 1.34553e-17)
(6.94447 0.191135 -3.17344e-17)
(4.75398 -0.507427 0)
(8.15688 0.105428 -4.0501e-17)
(7.95075 0.184229 -8.47416e-17)
(5.97235 0.0273618 4.80975e-17)
(5.82041 0.0984898 -5.63219e-17)
(7.34068 0.0935055 -1.41692e-17)
(6.3727 2.10296 1.48452e-18)
(6.40661 2.01089 -1.62099e-18)
(5.99187 -0.135913 -1.96096e-17)
(7.00074 0.0207942 0)
(6.97604 -0.31561 -2.40438e-18)
(7.05369 -0.245681 -2.44231e-18)
(6.99784 -0.273249 0)
(8.14357 -0.0286132 1.27936e-17)
(8.0729 0.0334398 -2.55701e-17)
(3.94798 0.493182 0)
(3.83405 0.654338 1.9848e-17)
(6.41095 2.1451 2.58385e-18)
(6.4939 2.0995 -2.38645e-18)
(6.78658 0.0444132 1.44944e-16)
(6.57088 0.0472341 5.3407e-17)
(0.74262 0.161802 1.03512e-17)
(5.15259 -0.0494474 5.57208e-17)
(7.07521 -0.00711443 -9.71705e-17)
(6.94441 0.135387 -3.91055e-17)
(6.87796 0.155137 6.38303e-17)
(6.8292 0.189174 -5.62219e-17)
(7.00955 0.0545943 0)
(7.00207 0.043297 -1.09103e-17)
(6.9215 -0.34941 2.41334e-18)
(6.92775 -0.295723 -8.29854e-18)
(6.99958 -0.256227 0)
(3.64123 -1.32629 -2.85092e-17)
(3.54475 -1.15748 -8.05846e-18)
(3.63552 -1.03087 0)
(6.88489 0.17383 -6.73404e-17)
(6.84956 0.241512 -3.71916e-17)
(6.87239 0.208503 4.42036e-17)
(6.81978 0.256606 6.03235e-17)
(7.83186 0.346475 1.01816e-16)
(7.78371 0.300999 -4.39293e-17)
(7.82778 0.228009 0)
(6.81364 -0.083614 2.82276e-17)
(3.05577 -1.5166 -7.24423e-18)
(6.61194 0.103515 -2.5587e-17)
(6.57599 0.151162 4.33291e-18)
(6.94731 0.0595751 1.10659e-16)
(7.27129 -0.08197 1.34257e-16)
(3.63527 -1.5911 0)
(3.43751 -1.67572 4.69884e-18)
(5.65247 -0.0417607 -9.11322e-17)
(5.4875 -0.0587144 3.76696e-17)
(7.37603 0.103377 0)
(6.83812 -0.0836324 8.42946e-17)
(7.51856 0.0779079 -4.73953e-17)
(7.33655 -0.161837 0)
(7.56161 -3.58958 9.55837e-18)
(7.50841 -3.36028 -9.59605e-18)
(5.08068 0.0681526 0)
(5.24452 0.00990601 -4.89985e-17)
(5.39149 0.0783045 3.32234e-17)
(4.23422 0.297926 0)
(4.39658 0.255745 2.15265e-17)
(6.86115 0.275319 -1.53573e-17)
(6.84902 0.316377 -1.39658e-17)
(6.8204 0.330524 0)
(7.94982 -0.209405 -7.24162e-17)
(7.05404 0.0101738 0)
(6.96897 -0.0053754 -3.81044e-17)
(6.50301 -0.00301863 -1.66181e-16)
(6.34051 -0.0733216 0)
(6.40826 0.000926489 9.95435e-18)
(7.11631 0.252322 1.8734e-17)
(7.12089 0.288299 3.45491e-18)
(6.22861 -0.0522003 0)
(6.21134 0.0438137 -2.45047e-17)
(6.1039 0.0974652 -1.12734e-16)
(7.01319 0.0295933 0)
(7.53261 -0.348689 0)
(7.66398 -0.299669 0)
(7.66412 -0.272011 0)
(0.791319 -0.108704 -5.27354e-17)
(2.95194 0.464551 -7.69072e-18)
(7.10901 -0.245826 0)
(7.07627 -0.283618 1.2632e-17)
(7.03991 -0.278214 -7.9887e-18)
(3.65912 -0.729375 6.11834e-18)
(3.57805 -0.887801 0)
(7.71957 -0.121133 8.8012e-18)
(7.97461 0.0723378 6.54124e-17)
(7.71538 0.149456 0)
(9.69681 0.443847 1.13575e-18)
(9.64763 0.510264 0)
(6.0032 1.17894 1.60511e-19)
(6.56521 -4.47232 1.40592e-20)
(6.65502 0.560427 -7.01077e-17)
(3.91011 0.360242 2.0293e-18)
(6.51559 1.1814 -3.16963e-20)
(2.93563 0.510036 6.70237e-18)
(3.9066 -0.676636 0)
(6.12393 3.1441 1.5112e-19)
(5.52762 -3.1616 0)
(5.55628 -3.24331 0)
(7.2152 -4.43237 0)
(6.28039 2.21488 0)
(6.28216 2.20054 3.33233e-20)
(6.12327 2.33695 0)
(6.11956 2.36014 -1.90926e-21)
(6.14813 0.76136 0)
(7.90389 0.291263 -5.2316e-19)
(7.00454 -2.14664 0)
(3.7782 -2.30022 1.68464e-18)
(4.37093 0.229207 2.62109e-19)
(6.20242 -2.18239 7.49981e-20)
(6.24506 -2.2341 -9.45387e-20)
(7.06712 -4.44187 -2.27981e-19)
(7.07314 -4.44461 0)
(6.94197 1.06366 0)
(8.37533 0.945055 0)
(1.53386 -1.69548 4.22198e-17)
(2.80982 0.0918915 -2.19139e-18)
(2.45712 -2.83719 -6.03782e-18)
(2.35063 -2.78581 0)
(6.49433 2.72356 1.23887e-20)
(7.439 0.797196 0)
(7.42765 0.839133 0)
(4.91828 0.973777 0)
(3.49443 -2.75474 0)
(7.42548 0.542406 -3.00647e-20)
(2.58304 -0.859473 -5.14055e-18)
(7.18147 1.27119 3.16379e-20)
(3.57638 -1.91679 -2.1734e-18)
(6.11242 0.779211 -1.41036e-22)
(4.26136 1.05879 0)
(4.23681 1.01736 0)
(6.52442 2.93872 0)
(8.01685 0.191599 -5.08266e-19)
(6.86246 -4.45922 1.07686e-18)
(3.21346 -3.7282 2.22116e-18)
(3.3497 -3.44492 2.90181e-20)
(6.9794 1.05388 0)
(8.47333 -0.559497 0)
(6.06888 3.17084 -3.78601e-19)
(6.02016 3.13062 0)
(6.03011 2.92281 6.64281e-19)
(6.68534 -0.746272 1.95352e-17)
(7.98555 0.518665 0)
(7.30006 0.971255 -7.05846e-20)
(6.68534 -0.841122 2.28886e-17)
(6.07621 3.5362 -1.53167e-21)
(6.80152 -2.09416 -6.34417e-20)
(6.7957 -2.04597 7.55658e-20)
(7.18949 -4.38337 1.07309e-18)
(7.20455 -4.36979 3.61135e-18)
(7.42539 0.694277 -5.08631e-20)
(7.43159 0.635583 -1.41697e-20)
(8.64213 -0.265911 1.41422e-18)
(6.22463 2.1859 0)
(6.26224 2.19272 -3.09746e-20)
(8.95073 1.00909 2.03422e-18)
(6.47148 1.00338 2.96546e-20)
(6.1284 -4.31466 2.31415e-18)
(5.46716 -3.01895 -2.15933e-18)
(5.86115 3.10193 -3.01776e-20)
(6.4042 -2.35333 2.85205e-20)
(7.79248 0.221618 0)
(6.00277 -2.43063 4.48035e-18)
(6.38877 0.9046 -7.7191e-18)
(6.29599 -1.48622 0)
(3.89823 -1.40254 3.27453e-17)
(9.05675 0.0371716 2.98191e-20)
(3.3155 2.18429 -2.58596e-18)
(5.72229 2.49391 1.40866e-18)
(5.6712 2.45815 -1.37675e-18)
(7.28767 1.14389 0)
(4.02026 -0.812218 -3.57604e-19)
(4.04172 -0.980279 -3.31292e-19)
(6.23693 2.33026 1.89823e-19)
(6.28231 -2.34078 6.70585e-20)
(4.33009 1.76118 -2.68452e-19)
(2.94489 -0.0734315 6.42574e-18)
(3.01383 0.0913423 1.15672e-17)
(7.3427 -1.35704 2.38211e-19)
(6.18707 0.984323 1.26287e-19)
(6.21263 1.00828 -2.05252e-19)
(6.3704 -4.46864 -1.24244e-18)
(6.28653 -4.45774 -2.63835e-20)
(8.36988 0.287479 3.8699e-19)
(8.36803 0.338805 2.77857e-19)
(7.19649 -1.65907 0)
(7.05025 0.527114 -8.451e-21)
(4.28489 1.43787 1.40545e-18)
(4.36575 1.35281 1.83353e-18)
(7.05702 3.33495 1.2189e-19)
(7.14452 0.653966 -3.21111e-20)
(5.71405 -4.15485 -1.22993e-18)
(6.24993 3.30584 5.04659e-21)
(6.32709 3.1931 -3.45642e-21)
(4.6016 -0.250886 -1.47076e-18)
(4.77709 -0.331692 -7.13374e-19)
(7.88102 -0.852877 0)
(6.68111 0.60228 1.09553e-19)
(7.95856 0.715986 0)
(7.83701 0.676268 2.26842e-19)
(6.49539 0.729744 -1.75154e-19)
(4.23958 -1.49007 0)
(4.17997 -1.5122 0)
(6.35842 0.966308 2.52579e-20)
(7.60208 0.191311 -1.23817e-19)
(7.29802 -4.36382 0)
(5.63645 1.23029 0)
(7.65999 -3.63408 0)
(6.65284 -4.50979 6.9474e-19)
(6.63301 -4.52442 1.24728e-18)
(4.59909 0.193167 1.84486e-18)
(4.61881 0.125646 -1.65695e-18)
(3.47276 -1.10472 -3.566e-19)
(8.38548 -4.52113 1.05296e-18)
(7.94362 -2.69847 1.23116e-19)
(1.20607 -3.34009 4.72218e-18)
(8.01992 -3.83032 4.56974e-19)
(5.94802 2.13645 -1.04772e-19)
(6.1905 2.45613 5.35757e-19)
(7.51291 -0.588464 -3.04867e-19)
(7.61968 -0.581366 1.29439e-19)
(5.80611 2.95339 7.08138e-20)
(4.0789 -0.642061 1.40219e-18)
(3.96243 -3.07512 6.82897e-18)
(6.64456 1.14875 0)
(9.32969 -2.0996 2.31175e-18)
(7.55744 0.929014 1.89461e-19)
(7.0274 -1.1245 0)
(6.72204 0.704366 3.97761e-20)
(6.20798 1.95146 6.69129e-19)
(6.16511 1.91201 -1.37499e-18)
(8.18088 -0.406207 4.41592e-19)
(8.16162 -0.317239 -8.03154e-19)
(5.99828 -2.66029 -3.6659e-19)
(4.43495 0.708791 -9.44578e-19)
(6.36306 2.36204 -8.61621e-20)
(6.42847 3.07977 -1.61759e-21)
(7.26182 1.09317 1.89408e-20)
(5.98447 1.11014 1.55719e-19)
(6.97848 0.596003 0)
(2.39954 -1.92916 0)
(3.90061 -0.58957 0)
(8.18622 1.62103 1.30966e-19)
(7.80517 -0.698894 2.31107e-19)
(7.12308 -1.66125 -1.41044e-19)
(6.97653 -1.71487 0)
(4.82216 0.0370827 -1.68717e-18)
(4.87639 0.0267364 0)
(5.4973 -3.54063 -1.13188e-19)
(5.62141 -3.58703 -7.41572e-19)
(6.71103 -1.0093 0)
(8.40811 -0.116467 0)
(8.39467 -0.0639398 0)
(7.12461 -4.43296 0)
(7.09124 -4.44073 0)
(6.54946 2.5349 6.3723e-21)
(6.54194 2.97488 -6.32393e-21)
(6.53326 3.01324 1.78737e-20)
(6.32102 2.35912 -1.05099e-19)
(7.37083 -1.50442 2.53645e-19)
(7.23904 -1.59315 9.9366e-20)
(7.05149 3.38779 -2.72276e-19)
(5.74092 1.1848 0)
(5.92588 1.10904 3.05409e-19)
(5.93517 1.06336 1.57142e-19)
(7.27402 0.833697 1.58263e-19)
(7.37777 0.845255 -1.44843e-19)
(7.70694 -4.4644 5.3255e-18)
(7.77217 -4.43003 0)
(6.05874 2.33222 -3.0006e-20)
(7.10964 -1.01666 1.00118e-19)
(7.08902 -1.11287 0)
(2.98142 0.623507 -6.95718e-18)
(2.94459 0.581806 7.9045e-18)
(2.97645 0.741109 -3.54289e-18)
(7.01454 -4.38756 1.23766e-18)
(6.08044 -0.229208 0)
(6.31316 -0.902766 0)
(5.88409 0.626815 4.02692e-19)
(5.8999 -2.15314 0)
(4.54337 0.680821 -1.02596e-19)
(4.61183 0.577448 1.25798e-18)
(7.33716 -3.98508 4.789e-18)
(7.44515 -0.58396 -3.54757e-19)
(6.23468 2.24605 -1.67298e-19)
(7.2447 1.73663 8.91676e-20)
(8.25481 -0.736625 0)
(8.33891 -0.598014 0)
(6.16742 0.393293 9.92674e-21)
(7.21455 -1.99287 3.64e-19)
(6.71154 -4.53347 -2.93762e-19)
(6.49484 1.5193 8.93278e-19)
(7.86511 0.647519 0)
(7.93901 0.666265 0)
(6.462 -4.41983 7.0756e-19)
(6.56793 -4.43252 0)
(7.34417 -4.62219 -9.29945e-19)
(4.74867 0.366199 0)
(4.5895 -0.182775 2.443e-19)
(3.33704 -3.25616 0)
(6.33901 2.2514 1.02507e-19)
(6.50647 -4.53141 0)
(6.32869 2.28743 4.95419e-20)
(6.36832 2.32063 -8.60121e-20)
(5.48256 -3.29745 3.39693e-19)
(5.32303 -3.38227 0)
(7.69932 -1.07147 0)
(7.64778 -1.11939 0)
(8.17924 1.18444 0)
(6.30983 2.27433 -5.20838e-20)
(6.27605 2.24114 1.627e-19)
(6.36572 2.29933 -5.53856e-20)
(6.38702 2.29643 4.78051e-20)
(6.35055 2.28374 7.28881e-22)
(7.49484 0.63585 -1.31809e-19)
(4.94702 0.941171 0)
(9.25676 -2.14621 9.88925e-19)
(6.49734 2.75887 3.57484e-21)
(6.29866 2.56362 -2.62867e-19)
(6.26621 2.57313 0)
(5.97975 -4.37153 -4.75147e-19)
(5.97493 -4.40305 4.83721e-19)
(6.80506 1.03328 -8.19857e-22)
(4.24247 0.656403 -4.66618e-20)
(4.99876 -1.6351 -1.90933e-17)
(4.63967 -1.30564 2.13218e-17)
(5.75455 -1.9962 1.57846e-18)
(6.22728 1.08114 1.38394e-19)
(3.88444 0.295668 -3.26678e-18)
(6.09905 2.29415 -1.46302e-19)
(6.46092 2.35959 1.13245e-20)
(8.11054 -4.42984 -1.34174e-18)
(4.42447 1.23925 0)
(4.97248 -0.378644 -9.747e-19)
(6.08749 2.37659 4.66709e-19)
(6.10028 2.36294 -6.33675e-19)
(6.06435 2.36564 -1.34744e-19)
(6.53172 -2.00073 4.53396e-20)
(7.11194 -1.39111 0)
(8.03753 -4.18398 1.31188e-18)
(6.88136 -1.39979 2.30631e-20)
(6.76896 -1.47354 3.03346e-20)
(7.7644 0.663538 1.63576e-19)
(6.96292 -4.41718 -2.51568e-21)
(6.88391 -4.43292 0)
(6.10432 -3.37041 7.23734e-19)
(7.54408 -4.44898 3.80975e-19)
(6.5018 -3.11388 1.48659e-19)
(6.78448 -4.50596 1.06056e-18)
(8.28874 -1.29862 -9.24742e-20)
(3.34731 -3.24532 -1.92888e-18)
(3.4141 -3.29903 -6.96741e-21)
(1.71757 -1.44943 1.62467e-17)
(6.90024 -4.41871 3.70804e-19)
(6.87682 -4.40516 0)
(6.9398 -4.40902 -4.13144e-19)
(2.82558 0.72544 -9.90968e-18)
(4.58148 0.907037 -4.3755e-19)
(4.57812 0.965413 2.267e-18)
(6.31401 -1.64954 0)
(6.84787 -4.43388 9.55344e-19)
(8.02693 -0.83384 -1.55714e-19)
(8.1214 -0.786298 -1.85895e-19)
(6.41347 -0.41991 -1.75559e-19)
(7.53099 0.84828 1.29369e-19)
(5.45708 3.01663 -4.80393e-19)
(3.17888 0.541467 0)
(7.59899 -3.98627 0)
(6.46112 1.59631 4.51918e-18)
(6.67287 -2.12598 -1.42809e-22)
(5.91203 2.73436 1.17008e-18)
(5.91653 2.87238 -5.19615e-19)
(6.64637 -1.02105 0)
(6.63171 -1.1052 3.16688e-20)
(6.56108 -1.14362 -1.06113e-19)
(7.29233 -4.5172 1.75515e-19)
(3.36223 -1.50582 -5.63154e-18)
(6.41366 2.71952 -1.03663e-19)
(6.29314 2.82645 4.84203e-19)
(2.2972 -0.988237 -1.30615e-17)
(6.18974 2.73064 1.40409e-18)
(5.9193 -3.77593 0)
(6.26877 2.96793 5.87735e-20)
(6.22889 3.07744 -4.45946e-20)
(7.08267 -4.4236 -6.85438e-19)
(5.16958 -0.391894 -1.1733e-18)
(6.34194 3.24315 0)
(6.30874 3.30152 1.07477e-20)
(4.12632 0.236446 -1.28979e-18)
(3.43367 -2.68348 1.35498e-18)
(7.78794 0.568414 5.38456e-19)
(3.98273 1.94189 -2.44846e-20)
(5.89284 -4.23675 7.80074e-19)
(5.80063 -4.22451 -1.75507e-18)
(6.42521 2.56651 -2.68627e-20)
(6.28878 -0.528211 0)
(4.2041 -0.159565 -1.66103e-19)
(4.24122 -0.266873 0)
(4.18825 -0.2514 1.55991e-19)
(4.24216 1.46517 -1.77506e-18)
(6.39407 -1.64441 -1.47935e-19)
(6.50625 -1.60048 0)
(6.69991 -1.57656 1.29366e-20)
(6.71403 -1.49286 -3.0602e-20)
(7.2423 -1.53159 7.99642e-20)
(7.31342 -1.47967 -2.79423e-19)
(7.99804 -0.796723 -1.58495e-19)
(7.92116 -0.80442 1.58056e-19)
(8.027 -0.699616 0)
(4.34337 0.671612 -4.52932e-21)
(4.29133 0.628619 -2.20156e-18)
(3.89034 0.438884 5.45475e-18)
(6.74371 -1.24565 7.43996e-21)
(6.71985 -1.33584 0)
(7.00585 -4.43759 3.66827e-19)
(7.05186 -4.43634 -3.58499e-19)
(6.47548 -4.24745 -4.1396e-18)
(6.50068 -4.28849 2.07872e-18)
(5.65246 -4.17761 -8.75744e-19)
(5.3509 -3.96051 -7.89872e-19)
(7.71334 0.847509 5.00477e-19)
(6.15713 -3.78518 -1.72174e-18)
(6.04157 -3.7439 1.47756e-18)
(6.57702 -0.647847 -3.72601e-17)
(6.61345 -0.734763 -2.58286e-17)
(3.95766 -2.7502 4.50591e-20)
(3.88361 -2.7474 0)
(8.14442 -1.03511 8.12843e-19)
(2.83941 -0.0425086 -2.11493e-18)