/*--------------------------------*- C++ -*----------------------------------*\
  =========                 |
  \\      /  F ield         | OpenFOAM: The Open Source CFD Toolbox
   \\    /   O peration     | Website:  https://openfoam.org
    \\  /    A nd           | Version:  6
     \\/     M anipulation  |
\*---------------------------------------------------------------------------*/
FoamFile
{
    version     2.0;
    format      ascii;
    class       volScalarField;
    location    "800";
    object      nut;
}
// * * * * * * * * * * * * * * * * * * * * * * * * * * * * * * * * * * * * * //

dimensions      [0 2 -1 0 0 0 0];

internalField   nonuniform List<scalar> 
29874
(
0.251531
0.20719
0.121576
0.155394
0.178614
0.241473
0.217362
0.141058
0.152905
0.141856
0.268009
0.257977
0.182097
0.262794
0.266573
0.283406
0.175282
0.277745
0.118827
0.141929
0.14066
0.143786
0.14055
0.153391
0.144473
0.177023
0.220222
0.14383
0.233373
0.233874
0.22967
0.195474
0.195348
0.220562
0.151512
0.157993
0.142262
0.162891
0.164078
0.20029
0.139911
0.139659
0.14519
0.133085
0.191325
0.160734
0.177985
0.244862
0.238929
0.239718
0.19398
0.291646
0.267841
0.279346
0.199701
0.1929
0.134878
0.16983
0.166093
0.172037
0.163757
0.149107
0.14748
0.167405
0.123467
0.189813
0.238354
0.176386
0.262044
0.283244
0.154933
0.148353
0.144378
0.109378
0.285246
0.231264
0.232401
0.226747
0.182905
0.164782
0.192406
0.110915
0.138384
0.146595
0.0953489
0.109411
0.148775
0.140867
0.188102
0.163281
0.0701293
0.139522
0.138683
0.145224
0.134174
0.13829
0.135937
0.0982017
0.0612385
0.108756
0.15086
0.138585
0.138847
0.16772
0.211653
0.063294
0.0755199
0.154664
0.158833
0.144461
0.0747427
0.195959
0.205342
0.138589
0.138585
0.138833
0.13484
0.150784
0.000261302
0.142257
0.139816
0.178233
0.129689
0.115021
0.136307
0.138663
0.153175
0.146944
0.142096
0.135096
0.140011
0.137147
0.150547
0.143224
0.14358
0.143291
0.14626
0.135433
0.143753
0.233421
0.200126
0.171628
0.278044
0.16953
0.149489
0.152045
0.170736
0.182885
0.139762
0.276856
0.24696
0.241051
0.294668
0.122326
0.135083
0.140124
0.150287
0.161965
0.183703
0.185232
0.166944
0.18112
0.222216
0.163016
0.215854
0.190003
0.171829
0.150277
0.149403
0.154378
0.193927
0.172965
0.164441
0.0922536
0.0807751
0.154989
0.148117
0.000265282
0.147868
0.145092
0.000200877
0.000175608
0.160512
0.14313
0.141043
0.158686
0.138342
0.138697
0.140689
0.138665
0.138548
0.190234
0.144981
0.139514
0.170646
0.143286
0.141888
0.154904
0.000423115
0.000430035
0.152165
0.150555
0.176737
0.163723
0.141049
0.138984
0.14064
0.216551
0.146781
0.140083
0.142448
0.145686
0.133892
0.141732
0.142945
0.146206
0.14567
0.142609
0.146357
0.152961
0.235798
0.197223
0.197853
0.16236
0.13972
0.145996
0.151418
0.149336
0.16135
0.13913
0.139988
0.140026
0.137084
0.130298
0.144578
0.146616
0.135356
0.170585
0.159389
0.195968
0.1987
0.00665059
0.0421812
0.101867
0.107586
0.0378598
0.035754
0.0542384
0.13181
0.0646707
0.0823297
0.127085
0.0976686
0.0607571
0.103254
0.0515037
0.0686093
0.000555575
0.0621376
0.0654226
0.0501951
0.0593963
0.0687829
0.0579927
0.0598926
0.0600039
0.0613899
0.115533
0.111958
0.000323827
0.0427722
0.0405188
0.115675
0.0913754
0.108582
0.0799744
0.0352074
0.000713031
0.10394
0.0962865
0.0937124
0.126709
0.126559
0.122005
0.121727
0.0819138
0.12529
0.125442
0.0523404
0.0558718
0.0845988
0.0884132
0.0897985
0.0568494
0.0568615
0.0734926
0.0725819
0.0437673
0.106308
0.10763
0.116658
0.0478898
0.117387
0.0452625
0.0915304
0.0892201
0.0456008
0.127735
0.0395098
0.00421872
0.0584686
0.0590138
0.0391432
0.0417638
0.0360474
0.066433
0.0682514
0.0894051
0.11421
0.112019
0.0607393
0.0655814
0.0406432
0.0459081
0.110534
0.108462
0.111208
0.138253
0.072375
0.0732007
0.136156
0.136574
0.0527585
0.0494694
0.0613694
0.0525159
0.111369
0.112834
0.112992
0.111356
0.0412481
0.0321143
0.0442533
0.0480933
0.0462827
0.0460033
0.116372
0.116456
0.063034
0.0905831
0.128333
0.124486
0.0710705
0.0612585
0.0812492
0.105317
0.0529784
0.0533682
0.108278
0.000318491
0.058143
0.027796
0.0602585
0.0453868
0.044208
0.0883551
0.0892462
0.0869074
0.132392
0.0605813
0.0561703
0.0597148
0.0564296
0.139578
0.131274
0.0627964
0.0705248
0.0687316
0.062932
0.0726496
0.0396386
0.0396789
0.120537
0.131339
0.110535
0.110464
0.133358
0.113613
0.11519
0.112371
0.0608974
0.0591117
0.0384193
0.0583295
0.0594192
0.0606487
0.0596464
0.0613591
0.0586104
0.138147
0.0606108
0.0615175
0.0612596
0.126832
0.122696
0.130501
0.0477833
0.0506811
0.0477522
0.0502636
0.0896713
0.082136
0.085384
0.0870571
0.136891
0.029456
0.0370132
0.0414215
0.0376296
0.045769
0.0454044
0.0428721
0.0816207
0.0697912
0.0864031
0.0828407
0.0810459
0.0886179
0.0941262
0.0939624
0.0572255
0.0572712
0.0589906
0.0555916
0.0472425
0.0576158
0.0543347
0.0431304
0.0507143
0.0690747
0.0768437
0.0709763
0.0738364
0.0522259
0.0488191
0.139428
0.140238
0.138153
0.136853
0.14063
0.05197
0.0552147
0.0492218
0.0794003
0.0899932
0.0844066
0.0559692
0.0571192
0.0583547
0.0551832
0.0607387
0.0603846
0.0602511
0.0606812
0.0675853
0.0674826
0.0642447
0.0774058
0.151024
0.144098
0.147661
0.148191
0.0655802
0.113676
0.104948
0.103905
0.107302
0.0485938
0.0447921
0.0522452
0.0938601
0.0610787
0.0673164
0.0646333
0.0634032
0.138259
0.0434627
0.0409094
0.0406667
0.043354
0.165814
0.000235889
0.137229
0.193792
0.000463809
0.138572
0.168065
0.139512
0.139539
0.139567
0.170153
0.129624
0.13812
0.138867
0.115402
0.134801
0.133045
0.1385
0.136675
0.133689
0.13856
0.138209
0.116434
0.138755
0.138515
0.00356142
0.139176
0.142183
0.000219965
0.138378
0.138842
0.140401
0.115318
0.140118
0.131857
0.134359
0.135246
0.139363
0.132163
0.134359
0.127312
0.152323
0.128739
0.124315
0.133807
0.129372
0.138805
0.130627
0.12755
0.121659
0.100119
0.0997205
0.000230851
0.00545721
0.157531
0.166376
0.138507
0.103061
0.105631
0.139354
0.134002
0.139838
0.139648
0.138298
0.0628642
0.0747276
0.0767461
0.123748
0.139244
0.224142
0.126576
0.108116
0.104824
0.106643
0.138684
0.0112149
0.13133
0.132716
0.100584
0.106604
0.0390555
0.148727
0.140515
0.235282
0.202999
0.138327
0.138521
0.138552
0.0955337
0.158108
0.146239
0.128494
0.126687
0.145519
0.118788
0.120531
0.116837
0.139816
0.127148
0.137292
0.133827
0.158553
0.147514
0.0747998
0.0693339
0.118445
0.119916
0.143388
0.140283
0.000713784
0.14973
0.181872
0.142242
0.140382
0.14004
0.139308
0.139844
0.126709
0.134454
0.139238
0.0557373
0.055649
0.0594428
0.13912
0.138258
0.138448
0.138061
0.139632
0.143207
0.147497
0.115605
0.0375515
0.139529
0.138163
0.14564
0.153723
0.0496634
0.0450562
0.122071
0.119026
0.161269
0.218779
0.159331
0.177571
0.053932
0.056692
0.110589
0.114461
0.117864
0.085076
0.0912732
0.137903
0.137721
0.13745
0.170647
0.141033
0.138789
0.138772
0.134031
0.135802
0.139101
0.138568
0.132734
0.133183
0.131086
0.139768
0.13695
0.145638
0.149238
0.000422374
0.00427061
0.117231
0.113199
0.122294
0.0635728
0.0592966
0.167992
0.170235
0.158043
0.00547552
0.00642547
0.0922774
0.0448417
0.135775
0.0470459
0.0800377
0.0327983
0.055023
0.0617585
0.0864446
0.0855454
0.073092
0.0859128
0.0856573
0.0937753
0.0946788
0.0991403
0.0429091
0.0905787
0.0509079
0.0729154
0.101918
0.101436
0.0671727
0.0671096
0.0676111
0.0277703
0.00305911
0.0308411
0.00621586
0.00397937
0.0699167
0.0540745
0.05401
0.0853954
0.0373883
0.0569768
0.0248464
0.0581811
0.0419884
0.0994419
0.0572
0.0562643
0.0619162
0.040167
0.057475
0.0247495
0.0296934
0.0663766
0.0290061
0.0612662
0.0631786
0.0928857
0.105418
0.0392924
0.056886
0.0959076
0.0464097
0.095437
0.0957789
0.0709393
0.070414
0.055179
0.0555369
0.024053
0.0870208
0.0860546
0.0144069
0.0847723
0.031249
0.00152786
0.064741
0.0997286
0.0476227
0.00150214
0.00132793
0.105191
0.0876806
0.0145723
0.00416385
0.0908574
0.0915733
0.055846
0.0619051
0.0633725
0.0895628
0.100458
0.0520558
0.0386348
0.0403698
0.0781046
0.0931633
0.0919167
0.0369951
0.0338073
0.0300487
0.0296314
0.0850737
0.0720916
0.0536702
0.0581968
0.0357152
0.0666216
0.0127895
0.0536378
0.0566249
0.088875
0.0959092
0.0538033
0.0846482
0.039215
0.0427603
0.0895813
0.0735133
0.0709127
0.0889305
0.0550431
0.06841
0.0931076
0.0603146
0.0464463
0.0448827
0.0848651
0.0867325
0.094764
0.0120067
0.0535482
0.0014026
0.038006
0.0884804
0.104918
0.0679693
0.0631053
0.0714789
0.0642677
0.052506
0.076279
0.00921873
0.0496037
0.0904025
0.0813632
0.118471
0.118387
0.0382309
0.0385052
0.0975538
0.070373
0.0835497
0.0592923
0.0571408
0.0943568
0.0736145
0.017332
0.0542176
0.0296875
0.0557754
0.087466
0.0921188
0.0951502
0.0968384
0.0260689
0.0289897
0.0996625
0.029704
0.0302025
0.069993
0.0680292
0.0730599
0.0603167
0.059248
0.0856869
0.0779821
0.0833211
0.0343205
0.0943682
0.0952509
0.0960165
0.0589758
0.0555387
0.0470875
0.0434831
0.105109
0.0874671
0.0881676
0.0339427
0.0326473
0.0320436
0.0669834
0.111288
0.10747
0.10649
0.102277
0.0759551
0.0798419
0.0614076
0.0705173
0.0879068
0.0548614
0.0374063
0.0344142
0.105264
0.0842466
0.0472435
0.127267
0.0420453
0.04007
0.0427425
0.0467178
0.0380753
0.088995
0.0874811
0.0193151
0.0841639
0.0397995
0.0848962
0.0833019
0.0836664
0.0801248
0.0627769
0.0652611
0.0319475
0.0855635
0.0864809
0.0832777
0.0824359
0.0839354
0.0536625
0.087341
0.0103128
0.068652
0.0830721
0.084263
0.0231202
0.0221602
0.0727299
0.0609095
0.0921153
0.0999029
0.0876227
0.0898543
0.0461372
0.0923627
0.0791011
0.0199694
0.0617678
0.101434
0.0953568
0.0948174
0.0946431
0.100283
0.0878444
0.0288813
0.0950018
0.0978504
0.0446499
0.0640621
0.0600323
0.0478645
0.0406542
0.0930279
0.0518169
0.0389321
0.0307105
0.0322837
0.00524021
0.0613323
0.0609864
0.0633231
0.0244883
0.0740229
0.0726961
0.104098
0.0583702
0.0469361
0.0435006
0.106406
0.050625
0.0661928
0.0430853
0.0531593
0.1262
0.0978672
0.0815533
0.0750099
0.101134
0.101431
0.10268
0.0705828
0.0302551
0.105756
0.100882
0.0151804
0.100509
0.0366883
0.0667488
0.0630155
0.068879
0.105703
0.0544194
0.0528552
0.0600135
0.00448226
0.0448015
0.0358326
0.0221134
0.0172387
0.077555
0.108562
0.0681229
0.0706258
0.0680811
0.0513669
0.103481
0.102051
0.0992989
0.0990493
0.0832018
0.0803052
0.0483424
0.0511635
0.0465931
0.0657859
0.0638102
0.0455962
0.0986791
0.0989651
0.0647467
0.0670372
0.048985
0.0489795
0.0102907
0.00752726
0.0452155
0.0453037
0.0419285
0.115525
0.109584
0.0547675
0.0518311
0.0434042
0.0332364
0.0298962
0.0705376
0.0483454
0.0536282
0.0681903
0.0337037
0.0961034
0.0916892
0.101669
0.101064
0.0998949
0.0796039
0.10593
0.103256
0.0955279
0.0749709
0.0345885
0.0360604
0.0300993
0.077343
0.0606321
0.0519204
0.0578739
0.0628677
0.0892024
0.0902935
0.0901447
0.0726687
0.0600799
0.0616251
0.0787726
0.0762648
0.0918576
0.0915245
0.0610634
0.0594943
0.0620675
0.0888561
0.0912208
0.0507572
0.0482945
0.0707274
0.0696258
0.0702341
0.069863
0.0763153
0.0788616
0.0745965
0.0884202
0.0726424
0.107596
0.0648826
0.0361435
0.00107133
0.0654464
0.0530358
0.0515536
0.101895
0.100594
0.102367
0.0778416
0.0770654
0.0782939
0.0414046
0.0767569
0.0746604
0.0779898
0.0814168
0.0810655
0.0798902
0.0796273
0.0756998
0.078431
0.110727
0.0117224
0.0943505
0.0345407
0.0915673
0.0803846
0.0386665
0.122299
0.0160202
0.0890099
0.0895493
0.063502
0.0492805
0.0474475
0.0511284
0.0863766
0.106422
0.103407
0.0887965
0.0849615
0.0599263
0.0608599
0.0572917
0.0469429
0.10914
0.108572
0.0453975
0.0478537
0.0818454
0.0364742
0.03359
0.0342709
0.0835516
0.0808424
0.0807161
0.0134296
0.0155701
0.000628524
0.105439
0.104001
0.101829
0.0788792
0.000763278
0.0653807
0.0630298
0.0890546
0.0647676
0.067984
0.0675862
0.0649807
0.0717361
0.0740728
0.0953917
0.0974588
0.049993
0.0483199
0.0669416
0.0193692
0.040589
0.0420397
0.000559132
0.10729
0.106592
0.107734
0.100339
0.0332608
0.0307872
0.0347958
0.0130755
0.0331582
0.0312086
0.077605
0.0759345
0.086953
0.0936356
0.0934618
0.0928524
0.100496
0.0991425
0.099476
0.0413102
0.103651
0.102951
0.0882131
0.086638
0.0873948
0.00051971
0.0506873
0.0702237
0.0945752
0.103718
0.10189
0.102416
0.103245
0.104087
0.103751
0.0435172
0.0384862
0.10853
0.000930747
0.0911669
0.0895716
0.0643016
0.0656591
0.0619461
0.0011607
0.0934317
0.088469
0.000446631
0.000799759
0.00272956
0.0935602
0.094268
0.0935979
0.0630468
0.0343647
0.0373118
0.0960869
0.0840571
0.0775125
0.0786659
0.0764973
0.0771127
0.0775173
0.0571374
0.000633079
0.0994
0.065695
0.0664714
0.0650019
0.0379486
0.037363
0.0915471
0.0922101
0.0913547
0.0931992
0.0929492
0.0955087
0.0819998
0.000483318
0.055551
0.0310413
0.106859
0.104037
0.0197368
0.0182336
0.0635963
0.0639257
0.0688049
0.0755826
0.0751504
0.073813
0.0949201
0.0966823
0.0450306
0.040611
0.0868487
0.000646211
0.000391632
0.0715871
0.0608383
0.0589639
0.0135495
0.0138843
0.0778571
0.0336338
0.0317198
0.0561234
0.106219
0.102491
0.100448
0.0984996
0.0207522
0.0720579
0.03723
0.0914506
0.0921295
0.09509
0.0939605
0.0496646
0.046786
0.0004376
0.000745163
0.0657746
0.0960699
0.0947744
0.000342076
0.0878143
0.0893569
0.102764
0.0471956
0.0437305
0.0456132
0.100923
0.0907838
0.0945346
0.0953195
0.0962294
0.0961849
0.0379834
0.0242769
0.0928363
0.0941963
0.0946456
0.0922837
0.0793203
0.077322
0.101717
0.0983605
0.0961951
0.0943432
0.105988
0.094582
0.0960729
0.0011936
0.00256413
0.068572
0.0697146
0.0693206
0.0687091
0.0573867
0.071831
0.089485
0.0911175
0.0924436
0.0784073
0.0785544
0.0408887
0.0378106
0.0398321
0.0385452
0.104477
0.104841
0.103531
0.10485
0.0803278
0.0824903
0.0804179
0.0822908
0.0601262
0.0616757
0.0630761
0.0589868
0.0474048
0.0505104
0.0469367
0.000669372
0.00130981
0.0597458
0.0596076
0.078194
0.0751705
0.0760758
0.0772994
0.0352067
0.0290582
0.11274
0.1148
0.108246
0.0369724
0.0899366
0.0922704
0.0634757
0.0650401
0.0643668
0.064207
0.108329
0.107367
0.074721
0.0738252
0.0846402
0.0856511
0.0605737
0.0587121
0.0581797
0.061026
0.0907214
0.0912648
0.0904854
0.0914353
0.0243795
0.0200558
0.0873759
0.0893436
0.0891286
0.0874317
0.0878559
0.0675915
0.0671953
0.0684365
0.00166019
0.0361872
0.0347684
0.0399286
0.0681276
0.0695069
0.0654627
0.073932
0.0921032
0.0379305
0.0393375
0.0650332
0.0663497
0.0643295
0.0685002
0.0720207
0.0711491
0.051685
0.0708362
0.0708563
0.0704059
0.0713346
0.0564637
0.0549043
0.0569746
0.0625578
0.0648994
0.0625504
0.084398
0.0863369
0.0869167
0.0835852
0.0964923
0.0957979
0.0979495
0.110864
0.108029
0.109248
0.106104
0.0903579
0.0903964
0.0908355
0.0899537
0.0691072
0.0686647
0.0681686
0.069476
0.0406244
0.043263
0.0462545
0.0690154
0.0721499
0.0692205
0.00758973
0.00786959
0.0616098
0.0472177
0.0243691
0.0286535
0.0570689
0.0539995
0.044482
0.0568646
0.0912459
0.088533
0.0636625
0.0660386
0.137189
0.137413
0.0209886
0.0636887
0.062587
0.0641669
0.0545777
0.0513752
0.0222146
0.0485305
0.0481809
0.0249768
0.0310514
0.0745991
0.0886455
0.0870256
0.087167
0.0885666
0.0105097
0.0103325
0.0601729
0.0564955
0.0596758
0.0559622
0.0318089
0.0719705
0.0979702
0.0103022
0.0947157
0.0924451
0.0961221
0.0981413
0.0966587
0.0502755
0.0458634
0.0515491
0.0624901
0.0621004
0.08324
0.0798631
0.0811824
0.103317
0.104933
0.104502
0.103669
0.0831847
0.0859737
0.083983
0.0224456
0.0217613
0.0764059
0.0739007
0.0740941
0.0949486
0.0986457
0.105701
0.105639
0.106198
0.105035
0.0631125
0.060228
0.0614795
0.0617534
0.030337
0.0465602
0.0448848
0.0936363
0.0912617
0.0922584
0.0928519
0.0652683
0.0646161
0.0662343
0.063599
0.090339
0.0916524
0.0906703
0.0820128
0.0808638
0.084683
0.0672687
0.0687963
0.0691355
0.0669643
0.026537
0.0231745
0.0226946
0.0277315
0.0536141
0.0554851
0.0522992
0.0524888
0.086372
0.0885105
0.086604
0.0772372
0.0743811
0.0489717
0.0459028
0.0475834
0.0471127
0.0153257
0.0119736
0.0819628
0.0792625
0.0802765
0.0808457
0.0843546
0.0859629
0.0819585
0.103594
0.118938
0.0865205
0.0887046
0.0731694
0.0705954
0.0722289
0.111329
0.107864
0.136611
0.0755824
0.0756419
0.0732191
0.0751421
0.0714721
0.0734197
0.0526746
0.0523182
0.0541192
0.0508399
0.0929979
0.0931792
0.092003
0.0598759
0.0605161
0.0615974
0.048743
0.0463396
0.0452293
0.049158
0.0486919
0.057892
0.061067
0.0602064
0.0585824
0.0553741
0.050471
0.0538226
0.091963
0.0928813
0.0933743
0.0915981
0.0291575
0.077355
0.0512635
0.0515688
0.0497227
0.0716075
0.072457
0.0724504
0.0718277
0.0458203
0.0476167
0.0476708
0.0458781
0.0755045
0.0744166
0.0783056
0.0116649
0.010289
0.0119914
0.0708762
0.103083
0.101387
0.102519
0.0980216
0.111853
0.111692
0.0831608
0.0375235
0.0694403
0.0618607
0.0604772
0.0627168
0.0622067
0.0611407
0.0707666
0.0709066
0.0850328
0.0872603
0.0837237
0.0731424
0.0745389
0.0751745
0.0903809
0.0896225
0.0896921
0.0902542
0.0425385
0.0419896
0.043692
0.0407454
0.0319732
0.0266325
0.0293526
0.0892039
0.0881715
0.0888386
0.109064
0.108245
0.0918034
0.0917205
0.0450833
0.0408567
0.0418655
0.03197
0.0302585
0.031598
0.0855284
0.0821574
0.0848456
0.0842844
0.082714
0.0575422
0.0595304
0.0995275
0.0998578
0.0998098
0.0970972
0.067428
0.0683457
0.0679857
0.100079
0.100538
0.0999599
0.050683
0.0524639
0.0503115
0.0526755
0.0531855
0.0540672
0.0521601
0.054909
0.05515
0.0999059
0.100294
0.0989213
0.0853427
0.0849575
0.0845681
0.0546912
0.0564229
0.0573232
0.054157
0.00660787
0.00795627
0.0544117
0.0330208
0.0490299
0.0328857
0.0896554
0.0890651
0.0921146
0.000802015
0.0103448
0.0634062
0.0661455
0.0657773
0.102738
0.101988
0.0607366
0.019262
0.0804466
0.0801513
0.0812893
0.0792356
0.117782
0.11725
0.119276
0.0631999
0.0592275
0.0618733
0.0783685
0.0796776
0.0888245
0.0865269
0.0871333
0.088331
0.0534957
0.052431
0.0546423
0.0934601
0.0931415
0.0941885
0.092506
0.0304746
0.0302028
0.0524407
0.0488113
0.0570901
0.0590619
0.057074
0.0574596
0.0585517
0.0317724
0.0258813
0.0678862
0.0662614
0.0673007
0.0665649
0.0618787
0.0711774
0.071849
0.0867469
0.10078
0.100541
0.100005
0.101463
0.0650029
0.0636947
0.0660203
0.017872
0.0186735
0.0702112
0.0708348
0.0700814
0.0796169
0.0811488
0.0786394
0.0819091
0.0724559
0.0717571
0.103927
0.110596
0.108245
0.0995078
0.0989234
0.0983259
0.072655
0.0762442
0.0747846
0.0741673
0.0782366
0.0784623
0.0645003
0.0483863
0.0466045
0.0477633
0.0472882
0.132361
0.129525
0.0542785
0.0530983
0.0840369
0.0855396
0.0859484
0.0834796
0.107954
0.10682
0.107383
0.107491
0.119918
0.0898481
0.0894263
0.0632109
0.0652956
0.064611
0.0635437
0.0572448
0.0591479
0.0998945
0.10783
0.106351
0.109006
0.0932302
0.0910733
0.0921581
0.092262
0.0349133
0.0629173
0.0581458
0.0225399
0.019779
0.0577905
0.061422
0.0608256
0.0591185
0.0242475
0.00392744
0.0904626
0.0909687
0.0352338
0.0910929
0.0899995
0.0542735
0.0977201
0.100235
0.0762073
0.0791587
0.0489444
0.0448629
0.0808054
0.0668197
0.0669548
0.0677256
0.0869616
0.0607038
0.0560953
0.0583923
0.049704
0.0484139
0.0499675
0.0480711
0.123243
0.124472
0.0562142
0.042851
0.0428018
0.0444996
0.0412458
0.0543726
0.0560063
0.0535589
0.0569843
0.138831
0.0920014
0.0902782
0.0920414
0.0900226
0.0525553
0.0536243
0.0491406
0.0519579
0.0513564
0.0567373
0.0567626
0.0585345
0.0550451
0.138089
0.138273
0.0916569
0.0940306
0.0939711
0.0221076
0.0197709
0.0304114
0.0787153
0.0764557
0.076027
0.0789671
0.0947885
0.095981
0.010922
0.05543
0.0456443
0.0422719
0.0452059
0.0418877
0.070432
0.0680894
0.0722928
0.000336417
0.105497
0.105929
0.10457
0.108177
0.098118
0.0842765
0.0739284
0.0873561
0.0898587
0.0864946
0.0951054
0.095797
0.0703677
0.0744353
0.0715537
0.0728348
0.0653719
0.0663915
0.0643378
0.0950164
0.0964174
0.0943997
0.120556
0.115161
0.113486
0.113798
0.114922
0.0486521
0.0470376
0.0496341
0.0463573
0.000128646
0.0725798
0.0766096
0.0754009
0.0674659
0.0657658
0.0703322
0.0334231
0.00574863
0.0958497
0.0690939
0.0697328
0.0732609
0.074274
0.0422817
0.0436323
0.04163
0.103729
0.104635
0.103085
0.105198
0.108703
0.0919014
0.0938123
0.093676
0.0919666
0.0838395
0.0828362
0.0852276
0.0842337
0.0970324
0.0959382
0.0965408
0.0962849
0.0261032
0.0284896
0.0268429
0.0381693
0.0380718
0.0367037
0.0396416
0.0639361
0.0632953
0.0636851
0.0634256
0.0216999
0.0717447
0.0706131
0.0709522
0.0172594
0.0468222
0.0434789
0.0456202
0.0444016
0.051235
0.0542489
0.0513082
0.0918454
0.0912875
0.0917605
0.0797495
0.079767
0.0531702
0.0542062
0.0515261
0.05537
0.100568
0.0994872
0.100646
0.0993238
0.0721247
0.0702277
0.0717064
0.0706405
0.0890415
0.0885948
0.0892517
0.0883495
0.00550519
0.00500389
0.00656234
0.0117037
0.0516463
0.0492612
0.043327
0.0414379
0.0422436
0.0424837
0.0519267
0.10891
0.108482
0.107756
0.109794
0.106387
0.135848
0.134923
0.135204
0.135314
0.0694181
0.0699035
0.0689538
0.0123171
0.0328737
0.0350221
0.093377
0.0935785
0.0917087
0.0897664
0.0896516
0.0895383
0.000165813
0.0488344
0.0500434
0.0475341
0.101266
0.0733635
0.0733743
0.0735603
0.0582811
0.0597691
0.0594124
0.0740948
0.088758
0.0905907
0.0883588
0.0908222
0.000407126
0.0530575
0.0528625
0.0530575
0.0512255
0.0704812
0.0674363
0.0720619
0.0718708
0.0743311
0.0667918
0.065593
0.0396119
0.0986666
0.0972103
0.0972695
0.0985672
0.127347
0.0571946
0.0574582
0.000638298
0.121358
0.121044
0.0872605
0.0870316
0.086529
0.0877568
0.0576086
0.0526451
0.0564693
0.0545136
0.0611611
0.0640423
0.133358
0.0867585
0.0897328
0.0881515
0.0884076
0.0628118
0.0632244
0.0519343
0.0542962
0.0501098
0.0465066
0.0385918
0.0403982
0.0393776
0.0396271
0.00127254
0.0515925
0.0515597
0.0500053
0.053175
0.102083
0.102236
0.102616
0.0322553
0.028697
0.0631674
0.0634522
0.0840005
0.070922
0.0721113
0.137257
0.0864562
0.0866815
0.0859245
0.0870358
0.0854543
0.133051
0.138218
0.0322981
0.0101231
0.00987203
0.0208399
0.0475239
0.00543613
0.011087
0.0113882
0.0215941
0.0912307
0.0580244
0.13861
0.00950251
0.0100507
0.00554869
0.00486773
0.138598
0.138435
0.138461
0.138271
0.00864473
0.0599929
0.0584024
0.122366
0.11786
0.127706
0.125644
0.0998643
0.104082
0.0144594
0.0075206
0.000264125
0.0808644
0.00090888
0.0191721
0.00056293
0.00925222
0.00961221
0.130957
0.0803841
0.0454257
0.0368333
0.0315397
0.000331027
0.139162
0.00470233
0.00462424
0.00549907
0.0870644
0.00444876
0.148967
0.14437
0.00723302
0.137894
0.000190929
0.0249666
0.02346
0.0120126
0.0148149
0.023329
0.120865
0.092933
0.0223101
0.137373
0.137472
0.0490108
0.0316533
0.030058
0.0771134
0.104639
0.135864
0.13648
0.0344396
0.0325975
0.129716
0.00787779
0.00157818
0.000325306
0.120426
0.118709
0.00113424
0.0055559
0.0327998
0.000972593
0.000444773
0.00415319
0.121573
0.114911
0.118252
0.11807
0.00291441
0.0450674
0.00608116
0.000228621
0.0228057
0.114194
0.118005
0.0426743
0.00607876
0.00367875
0.00338327
0.130604
0.0395999
0.132237
0.129744
0.131097
0.167756
0.0157687
0.0984746
0.00390855
0.00486988
0.000913076
0.112704
0.00665232
0.0360673
0.0127098
0.0429642
0.0402871
0.0401354
0.0346357
0.0209172
0.0217464
0.0218868
0.0176473
0.0248086
0.0433249
0.00840822
0.00868421
0.00193245
0.00341169
0.0326075
0.0187773
0.0164018
0.00413606
0.00478139
0.031167
0.0331987
0.021109
0.0200404
0.0209877
0.00204708
0.0070237
0.014917
0.000902971
0.000336804
0.000518174
0.0169382
0.000577358
0.000762785
0.000279295
0.000464866
0.00841831
0.00123398
0.0634593
0.023687
0.0510091
0.0268452
0.00523496
0.00655891
0.0468883
0.0330369
0.0803701
0.0251174
0.110885
0.0326924
0.0947237
0.000637163
0.00571411
0.132977
0.00397661
0.0965517
0.0787787
0.133171
0.132331
0.0435155
0.010829
0.138352
0.123294
0.12434
0.0200743
0.071744
0.0711252
0.13214
0.00418138
0.00859985
0.00308752
0.0051622
0.00565702
0.00512989
0.00950116
0.00417508
0.129938
0.0336476
0.00448226
0.00591143
0.00939367
0.012384
0.0285989
0.0279788
0.0471742
0.11059
0.00803409
0.000162687
0.137892
0.137748
0.0231695
0.0221982
0.0296579
0.0284783
0.0308607
0.0791352
0.0226137
0.00876838
0.00130819
0.0130897
0.0501712
0.047379
0.118827
0.101863
0.00286419
0.00307171
0.134313
0.0614015
0.0280529
0.0456123
0.0464234
0.00638765
0.0756955
0.137965
0.0173809
0.0187771
0.0183141
0.136533
0.136867
0.0406566
0.035333
0.00690881
0.0617917
0.069709
0.03607
0.0325461
0.0133533
0.0149896
0.13515
0.136367
0.0670018
0.150494
0.143687
0.13863
0.138445
0.0134819
0.120786
0.00744053
0.0084108
0.0580307
0.00785809
0.0108998
0.0113514
0.0202411
0.120729
0.00849836
0.00957171
0.0235341
0.00531389
0.00564869
0.128887
0.011342
0.0333229
0.00994115
0.0599498
0.136944
0.13703
0.00253077
0.114632
0.000768855
0.0275709
0.0889443
0.0911752
0.0697353
0.0332066
0.0327757
0.0111373
0.0159603
0.0261401
0.057277
0.0243478
0.228179
0.184849
0.000435936
0.0389906
0.0390724
0.03767
0.0377131
0.00804342
0.00317804
0.0765289
0.0401625
0.0603906
0.0620272
0.054742
0.0268582
0.0120945
0.127757
0.122083
0.125284
0.138031
0.138114
0.0329544
0.0347737
0.0322693
0.0425602
0.0445838
0.0990725
0.0924793
0.107119
0.0492669
0.0437449
0.0335335
0.112582
0.0403924
0.0647228
0.0666145
0.0686798
0.0541326
0.0288744
0.0919782
0.0904964
0.104192
0.138426
0.111217
0.109041
0.130694
0.12702
0.0187728
0.0266981
0.0196761
0.11966
0.118166
0.1284
0.0120105
0.013855
0.0637842
0.0571913
0.0353744
0.0359443
0.0328931
0.0681242
0.0678343
0.0700183
0.0458579
0.0156503
0.0305292
0.0298558
0.0278759
0.0322614
0.136877
0.137266
0.136866
0.137261
0.0145589
0.0142823
0.128112
0.0296394
0.0291522
0.0312373
0.02828
0.0279961
0.0317922
0.0346839
0.0341865
0.137926
0.136249
0.135689
0.097324
0.0809791
0.0704577
0.136453
0.0299125
0.0268906
0.0117177
0.102203
0.275899
0.214099
0.240161
0.0638762
0.062463
0.0865936
0.0342922
0.0334949
0.030296
0.00131396
0.214161
0.0183421
0.0557507
0.0593323
0.0580477
0.0564309
0.0023187
0.136198
0.136752
0.0104246
0.0471265
0.117519
0.138913
0.138972
0.117444
0.116991
0.000271027
0.0505846
0.0867968
0.0579995
0.0589184
0.0590784
0.0004035
0.126282
0.129114
0.123619
0.137334
0.136951
0.0464356
0.0440654
0.0467327
0.0245356
0.0423201
0.0589618
0.0595665
0.0568308
0.0936945
0.000712429
0.124778
0.122098
0.0169269
0.00242166
0.104377
0.109635
0.122209
0.118266
0.0500079
0.0487372
0.0208741
0.133384
0.0558723
0.0546591
0.0574604
0.0571479
0.196738
0.186346
0.0354528
0.0344846
0.0331719
0.0079434
0.0100739
0.0192181
0.0214782
0.0233111
0.0409319
0.0267019
0.0606509
0.0590411
0.0454474
0.117487
0.120249
0.00162771
0.0411303
0.0704162
0.0719002
0.0740389
0.0367085
0.0409859
0.0606831
0.138476
0.0124841
0.0570432
0.05893
0.0586575
0.122699
0.122257
0.0132868
0.135247
0.0233471
0.00895803
0.080381
0.0832502
0.084867
0.0626326
0.0619775
0.0959442
0.101486
0.0494304
0.0472448
0.0210037
0.0220904
0.0283112
0.0253058
0.0164552
0.0131672
0.0154904
0.049749
0.0477179
0.0266005
0.00464245
0.106754
0.036059
0.0359345
0.0381582
0.0108749
0.0260408
0.124953
0.123825
0.0833722
0.0838844
0.0830674
0.0248702
0.0719498
0.00977088
0.000994459
0.138792
0.0754434
0.0388155
0.0366137
0.0393112
0.0487755
0.0359083
0.000505371
0.140335
0.0578309
0.0906446
0.0194207
0.0253301
0.0705709
0.0315099
0.0294623
0.0153739
0.0882951
0.0334551
0.00463611
0.132516
0.126207
0.0985507
0.0993203
0.111016
0.00137111
0.00502478
0.0592678
0.0179754
0.0502142
0.0543755
0.043816
0.0440532
0.0532069
0.0536228
0.0582077
0.0184996
0.0192498
0.12094
0.118835
0.138928
0.138866
0.0926598
0.0909208
0.00548041
0.0410216
0.0378573
0.0198267
0.0207875
0.0691635
0.0669687
0.00715851
0.0333765
0.028575
0.0572953
0.0642206
0.120227
0.117543
0.0962353
0.13858
0.138477
0.0535927
0.0527012
0.0698784
0.0688866
0.0398845
0.0368546
0.104928
0.0171474
0.0185912
0.0593329
0.0628801
0.0636267
0.0620606
0.0752115
0.0728625
0.083455
0.0829913
0.0817171
0.10052
0.101272
0.101588
0.0419564
0.0423011
0.126679
0.134794
0.135392
0.0156141
0.00908132
0.129886
0.127476
0.0433763
0.0513318
0.0544293
0.053427
0.0978146
0.136179
0.144492
0.00208983
0.0468189
0.0476787
0.0533464
0.11759
0.0363764
0.139053
0.140562
0.0936503
0.0344079
0.0358632
0.0925142
0.0937907
0.0898635
0.0887689
0.0960762
0.0946091
0.0152719
0.012924
0.0718575
0.0741086
0.139311
0.139259
0.139406
0.11623
0.0380879
0.134015
0.0575693
0.0623376
0.0724997
0.0695871
0.0213033
0.0556521
0.0543523
0.106426
0.107927
0.0449905
0.132897
0.025039
0.0269071
0.138488
0.138308
0.102866
0.0997888
0.0983369
0.0985238
0.0990253
0.0232171
0.0257227
0.125661
0.0329289
0.0343709
0.0698003
0.154682
0.16621
0.0450109
0.138004
0.137675
0.0406835
0.0264515
0.138578
0.0947085
0.0966349
0.0958192
0.0414901
0.0427792
0.0611585
0.0650958
0.0544018
0.0520508
0.134747
0.00486417
0.066715
0.0668439
0.0638692
0.0679633
0.0345364
0.125658
0.123209
0.119686
0.0734882
0.0701567
0.0721421
0.121774
0.117372
0.112731
0.0809337
0.082671
0.0824044
0.133491
0.134758
0.134266
0.086905
0.0763148
0.0679923
0.0701579
0.0208605
0.0189492
0.0213283
0.116237
0.102087
0.108571
0.113746
0.0666905
0.138817
0.130815
0.128782
0.0276315
0.0305667
0.0650702
0.0661107
0.0915581
0.0906449
0.0896907
0.122016
0.1244
0.118068
0.0879037
0.0870465
0.0868934
0.124054
0.124894
0.125941
0.070949
0.0681514
0.137011
0.137354
0.137526
0.0660525
0.0644412
0.0639965
0.129177
0.13021
0.0687973
0.0691425
0.010039
0.062143
0.062608
0.0659941
0.0660075
0.0169686
0.0182367
0.0634425
0.0660174
0.065808
0.082723
0.202216
0.256527
0.0484305
0.00288179
0.0676325
0.000711033
0.0870372
0.0879985
0.0494396
0.0192948
0.133195
0.138169
0.138244
0.122914
0.123943
0.0563354
0.055172
0.138609
0.0878534
0.0872328
0.00867345
0.136483
0.137409
0.137802
0.0693617
0.0685287
0.132121
0.107264
0.105196
0.127
0.123176
0.131456
0.131593
0.0564266
0.0572989
0.0851391
0.0871509
0.0145909
0.0965017
0.101357
0.18077
0.152964
0.0975941
0.0975836
0.118069
0.111571
0.0857851
0.0849008
0.154895
0.141657
0.141715
0.0518285
0.0504613
0.0513194
0.0704192
0.0697702
0.0144801
0.135086
0.140843
0.127665
0.0730233
0.067094
0.0765311
0.0762891
0.129759
0.132377
0.131663
0.0434067
0.0458314
0.078924
0.079786
0.114029
0.115815
0.0345975
0.0380688
0.0679976
0.0675034
0.0345771
0.035386
0.0373267
0.108021
0.112484
0.107062
0.026014
0.0585481
0.0589838
0.0588294
0.0581173
0.058264
0.0561367
0.0480101
0.0504075
0.151442
0.0376551
0.0411377
0.0758484
0.0760974
0.0737459
0.0738478
0.0747868
0.0795486
0.0771595
0.0750643
0.0789707
0.0765831
0.0409308
0.0420947
0.0479469
0.0504279
0.0519141
0.0573988
0.0580958
0.020402
0.0273261
0.0292363
0.0256253
0.0231466
0.0257043
0.00063144
0.137422
0.136576
0.135836
0.138237
0.138529
0.0844467
0.0171922
0.0152106
0.011288
0.0132589
0.0603361
0.0738649
0.0692924
0.063608
0.0777949
0.0784557
0.0498572