/*--------------------------------*- C++ -*----------------------------------*\
  =========                 |
  \\      /  F ield         | OpenFOAM: The Open Source CFD Toolbox
   \\    /   O peration     | Website:  https://openfoam.org
    \\  /    A nd           | Version:  6
     \\/     M anipulation  |
\*---------------------------------------------------------------------------*/
FoamFile
{
    version     2.0;
    format      ascii;
    class       volScalarField;
    location    "800";
    object      p;
}
// * * * * * * * * * * * * * * * * * * * * * * * * * * * * * * * * * * * * * //

dimensions      [0 2 -2 0 0 0 0];

internalField   nonuniform List<scalar> 
29874
(
2.95608
0.183621
0.143517
-2.96098
0.183664
-4.54388
-1.18839
0.711792
2.54041
0.589926
-2.41954
-0.037987
-2.01815
-0.277062
-2.17228
-4.38028
-2.97246
-3.28181
0.362151
-0.0236007
3.20594
-1.83423
1.22898
0.866486
3.85891
-0.682593
-2.14766
0.283443
0.489541
-2.76478
-2.61415
-3.78747
-0.616745
1.02513
2.92594
1.4827
2.88082
-1.7019
1.46668
-1.01318
1.00026
1.17554
1.43542
3.24115
-2.52764
1.81616
1.00255
-0.814423
-2.9242
4.20587
-0.398577
-2.51704
-4.14312
2.54444
-0.31423
-0.804983
-0.700175
0.828123
1.76503
-2.28131
-0.678602
2.19061
1.5264
6.16891
0.29508
1.03769
0.397816
1.21782
0.689389
0.599106
-1.98282
-1.50237
7.61564
0.533135
1.23109
-2.64741
-0.950973
-2.38982
4.61436
2.6651
-3.49213
-0.266289
1.0231
-1.62424
14.8672
12.6488
0.450483
0.256829
-1.81201
-1.01504
18.5379
1.18261
1.25075
-0.584838
0.168128
3.02907
0.562922
14.6587
19.8946
-0.273227
-0.346422
0.49605
0.9547
4.73442
6.42692
19.737
17.929
0.194752
0.710127
0.356178
18.189
-1.65422
-1.81789
1.12841
1.02961
1.03126
2.04706
1.68415
24.5769
1.70269
1.38719
-3.617
-0.0352382
-0.109769
-0.112018
3.43044
-1.2674
1.33604
1.70873
3.96085
0.724408
3.06702
2.62751
1.16682
0.792898
1.56689
1.04918
-0.185565
-1.74548
3.50557
1.0168
1.54793
-0.551364
5.61138
0.957353
2.92266
-1.21016
2.02682
0.5706
1.79231
-2.21857
-0.8948
-3.39059
-0.229309
-0.607583
1.16564
3.89937
-2.23026
-1.83671
-1.99302
-1.53295
4.45497
7.24324
0.890929
0.689212
0.993591
0.580401
3.44134
4.00287
1.08088
0.836859
0.678008
0.912426
16.0713
17.3378
0.80801
0.551192
26.123
3.92934
4.02445
25.9008
25.9289
-1.5323
3.39801
4.2924
-4.70263
0.425688
0.495671
-0.206017
0.937473
0.953757
-5.00184
3.48726
3.61683
3.33369
1.80239
1.49399
-0.514146
25.7726
25.8658
-1.64736
-5.75904
3.35316
2.86112
2.2842
2.80611
2.30826
-6.35663
2.20466
2.31728
2.10724
0.555518
5.21712
3.47089
-1.45411
1.47539
0.692963
0.507498
0.52348
0.738347
-1.07908
-4.78174
-0.266258
2.25541
0.805647
0.488224
-0.360861
-0.174482
-0.658917
0.79005
0.817526
0.760879
0.00646196
-0.534652
3.44946
3.57754
4.49668
-0.601767
0.390179
-0.611916
-1.81209
22.5532
21.8499
3.86136
2.8758
21.3001
21.5438
-10.6782
2.62333
-6.08697
16.4345
2.03308
-10.2734
20.5375
0.239926
20.9301
18.8911
23.5362
-6.38785
19.457
-3.16757
20.6396
18.6251
-3.94644
-5.31212
-6.20351
-6.75405
3.21253
3.35603
24.8348
20.7952
21.1561
-7.36482
-8.74768
-0.388289
2.8518
-4.93918
24.4732
4.0991
-0.577101
-1.52976
0.0980391
0.594697
2.26377
1.98871
3.12828
1.12637
0.714047
20.6894
20.4602
4.17429
2.83417
2.96307
-9.40523
-9.30134
18.9487
19.0133
-3.84375
-9.47436
-9.30422
-8.73347
20.1821
3.21872
21.6661
3.07138
3.16152
20.5227
2.20629
-3.76742
25.5612
-8.43075
-8.42213
-4.13935
-4.65831
-4.24553
19.6207
19.6353
-4.60152
3.58383
3.65793
-5.78069
-10.1546
20.4597
21.6331
3.96079
3.98914
4.2936
-0.643721
19.2951
18.9463
3.51536
2.89507
19.9313
19.9293
-8.44888
-4.85461
2.96001
2.47914
2.49178
2.42258
21.3223
-3.93273
21.6885
21.3655
21.4554
21.5498
2.15608
2.50854
-9.29531
2.95148
2.01206
-3.2474
-10.5424
-9.56793
-9.93418
0.450331
20.9692
20.6145
8.80792
24.8671
-4.56582
21.1505
-7.43008
21.529
21.5879
2.83229
2.91206
2.61808
6.21319
20.4046
20.6741
19.7964
20.352
0.869446
0.696672
19.9898
18.8468
18.6803
19.0527
18.3474
21.479
21.8549
3.45075
3.25123
3.29458
3.10205
-2.9564
2.23324
2.12315
1.90309
-7.46485
-8.87049
22.2231
-6.60715
-5.52656
-9.02717
-8.49072
-9.19962
-9.3055
2.90714
-5.98339
-6.59265
-6.20625
4.68579
4.66193
4.15273
21.5443
21.2469
21.1269
21.0545
15.9761
17.2351
16.4665
16.0994
1.74411
20.2843
19.7482
19.4449
19.9511
21.3179
21.5593
21.8226
17.0433
18.0955
16.1128
17.0781
18.0606
16.6452
-1.11421
-0.387544
-4.74459
-5.36706
-5.51118
-4.80261
20.1381
-3.90975
-3.27833
19.1669
19.4989
19.2717
18.5527
18.4158
18.0257
19.9817
20.0289
1.65791
4.4015
4.47928
4.7487
3.6978
20.2169
20.0283
20.923
15.5876
15.0076
15.5662
-5.8771
-5.54336
-5.87492
-5.2473
-6.82104
-5.64445
-7.42635
-6.46269
19.7713
19.3291
19.821
2.62615
1.12111
0.998352
1.06836
0.936073
0.729386
11.8936
3.94833
3.81969
3.73213
19.6721
19.9601
19.1578
-6.84946
19.9935
18.8931
19.2124
19.2258
1.11848
21.4721
21.8022
21.6363
21.0672
-2.18124
24.8274
-5.13389
-2.50657
26.1054
-0.569449
-2.53532
0.570191
0.650505
0.663638
-2.9026
-1.00168
2.644
2.32207
-0.325404
5.71761
6.29432
4.36662
4.73612
-2.29704
1.48849
1.60711
10.951
1.01661
1.10291
25.1122
0.579716
-4.41313
24.1776
-0.294687
0.964951
-1.23715
10.8207
-1.81906
-1.76309
-2.0859
1.10703
0.591223
-2.05653
-2.22798
-2.21571
-2.09417
3.72092
3.82391
0.319515
0.41131
-0.470391
5.16207
2.86218
2.94265
-0.206377
-0.2671
24.3182
24.9819
-1.36064
-1.31705
-1.97398
-0.152774
0.189871
3.30774
-4.02237
0.757079
0.858039
-0.166057
-8.52731
-9.48198
-7.66614
9.48684
0.635757
-4.38312
-2.51058
-0.38438
-0.376109
-0.298672
-0.71913
25.3813
-3.15899
-2.83424
14.352
13.5542
21.8426
-4.20794
-0.728361
-6.93655
-4.66641
-1.28315
-1.00051
1.20686
14.2139
-4.77532
-5.46747
7.71311
8.71853
-0.515862
2.74045
2.72753
-0.586081
0.629291
1.06157
0.884702
1.10362
-5.1887
-5.82176
17.9878
18.3234
2.4246
2.01054
4.00204
4.40301
24.3892
0.173496
-4.11326
2.05848
2.22041
2.43683
0.575528
0.639425
1.54713
1.56722
1.44598
19.0683
19.5151
19.1246
1.93105
1.97373
1.82899
2.16273
-5.90018
-5.32303
-5.06844
-0.450304
21.1172
3.97696
3.7974
3.51206
3.84021
18.4985
19.4536
9.55875
10.5532
3.30682
0.126033
2.92381
2.47103
-9.69614
-10.676
12.6992
11.9043
11.0854
16.7554
16.1534
1.80002
1.89107
2.071
-2.5553
1.45944
1.13237
4.55655
5.3579
4.97597
-0.843437
-1.00996
6.25635
6.30505
6.95564
0.869573
-3.49906
-3.34277
-3.12019
24.853
25.1337
0.135869
0.277549
0.589616
19.2725
19.4823
-0.907738
-1.36791
-0.561789
-22.0908
-21.246
6.66428
-9.37772
3.02335
21.447
3.21946
21.9078
21.4397
1.45652
5.58042
4.96565
-11.2862
3.24557
3.15641
3.92878
4.07684
5.9665
-6.68167
-2.71658
19.8697
18.4928
2.9921
2.72261
-10.9613
-11.0656
0.0900105
-11.493
23.8697
22.6696
24.0226
24.2482
0.413155
-3.44071
-3.00651
14.5388
20.2847
-3.06831
23.1516
-1.85609
21.6858
6.02739
18.7382
19.1303
-0.603913
-7.65589
-10.3729
18.6281
18.8886
0.0812011
-11.6592
1.76412
2.38242
3.15514
2.70544
-7.56168
-2.34759
2.65827
0.489114
-1.04508
-1.24483
-10.9542
-10.8331
-3.16024
-2.79508
-13.1684
3.65516
3.44462
-17.0208
3.34096
-6.81003
-31.9643
3.16901
0.826456
-5.70319
-31.1717
-26.5094
3.37957
-17.0459
-17.1626
21.3246
6.01249
6.25022
-2.4585
20.3617
20.06
3.26392
2.01869
17.0624
22.1053
21.889
-3.5644
5.46278
5.12512
-8.65002
-8.36136
-10.9886
-10.62
-2.82519
-0.00518518
18.0502
17.982
-6.06573
-0.772135
-3.9293
0.133973
-0.0642763
16.7595
15.3911
-6.71055
2.40467
-7.56073
-6.28998
3.48965
18.3232
18.4996
4.49965
-4.41647
-11.2746
9.18813
-12.5535
-9.99407
-10.1001
17.0537
17.0145
-16.3227
-22.9216
-11.2191
15.266
-16.3362
5.65616
3.27055
-3.80108
-4.89546
4.22418
20.2756
16.609
1.96702
-21.5854
-4.45141
-0.827896
1.99656
4.25157
4.48943
-8.87488
-8.85111
3.17996
18.0938
2.35751
-0.322689
-2.24673
6.66592
0.0568845
22.4225
21.4387
-10.7031
-6.23129
-2.42528
-1.96551
15.8982
14.5043
-0.0417247
-0.732653
1.61738
-10.8809
-11.0142
-11.0915
-11.0719
0.602178
-0.569943
-0.766277
2.55519
-3.99577
-3.17751
-6.12445
8.55314
7.50564
6.94537
-2.21237
-2.80236
-13.977
-14.5156
4.34628
-1.53028
-1.43177
21.7137
21.9847
21.7565
-10.2565
6.44286
4.1608
7.78804
5.08441
16.94
16.8718
-10.003
-3.25574
3.37595
-3.02421
-9.73266
-10.6254
5.94859
-3.9268
-10.4538
3.05501
-6.58557
-7.14863
-8.52516
-9.15384
-15.5522
15.8214
16.8143
16.4223
2.73698
-9.66528
2.78962
2.26549
5.38537
6.65012
-5.46145
-5.76939
-10.0564
2.92311
3.16013
2.47209
2.32943
2.57953
-3.59062
14.3152
-20.9764
0.249204
2.31113
2.49698
-6.7278
-6.87906
1.29623
19.1488
-11.8211
-12.7377
-12.4791
5.15918
21.6229
4.29349
1.62623
-20.3888
17.6397
14.1637
4.19536
4.08903
4.30471
0.896155
-1.75572
-18.2673
-0.212149
0.530807
-5.67147
-10.3176
-10.146
-1.70256
-15.8406
-1.93224
-10.4232
-10.9153
19.4448
19.0635
24.0855
-10.2053
-9.89986
-10.1222
22.3125
17.0051
16.8189
3.01313
-10.068
-8.24857
-8.98326
3.86996
-3.90205
5.93971
21.1343
-11.89
3.21518
-0.705632
4.19145
3.75797
1.70212
1.92155
2.16068
-11.9359
23.6146
0.951787
1.56743
23.7984
2.68964
-2.82217
1.12205
1.00743
-10.8535
12.8533
-0.251389
-0.362337
20.0913
-3.16463
-6.14587
19.0417
-5.45895
-4.87046
1.44986
4.72718
19.3319
19.0854
19.8326
18.1704
2.83237
1.8549
0.558271
0.783937
-3.19533
-3.70343
-8.06146
-6.9062
-7.9153
18.5127
18.7842
21.4779
0.592631
0.873118
-10.6195
-10.874
-7.41226
-7.6857
-4.03799
-3.50261
-5.37312
-3.62719
-2.94827
3.68837
3.19377
17.459
18.2497
-9.39137
22.5311
18.0402
18.8398
-12.7305
-12.1312
-10.2588
-10.842
4.49195
3.4419
3.62069
3.61138
3.51929
-8.53795
2.94641
3.36167
3.04696
-3.6114
-3.0549
-3.38282
-2.75211
2.32873
-13.3225
-11.852
3.49999
19.4607
5.40141
5.97978
5.72366
18.9667
17.6714
17.6105
18.2068
18.553
-0.457326
0.0839822
-0.873403
-2.2723
-1.75265
-2.16017
-2.18311
21.3043
21.6245
-11.5215
-11.3964
-11.1479
-11.3527
-2.74924
-1.70605
-2.41705
3.21768
-2.56984
4.43654
17.7775
-8.52436
18.8669
-11.1741
18.7758
18.929
3.45178
3.50137
3.54205
1.89923
1.76767
2.22858
21.6473
1.95823
1.83993
2.05549
1.90579
1.96552
1.89117
1.68644
-4.14137
-3.72671
5.99489
23.6238
4.10607
-6.13332
5.18752
17.282
-7.66666
3.79146
-16.4633
-1.52079
-1.3671
-15.878
18.3449
18.2412
18.3074
2.63759
2.45693
2.97166
3.16262
2.68125
1.10923
0.981361
0.92999
16.4637
5.37884
5.0238
-8.54943
-7.80001
2.06822
-9.49111
-10.2211
-9.54149
-2.25353
-2.8424
-2.00719
24.9261
-16.5147
23.3041
3.35755
2.81144
3.42442
1.68665
22.0756
19.687
19.9525
3.54289
19.6744
18.9855
18.3528
18.7284
0.726869
1.25193
15.0952
14.8682
-9.89465
-10.0677
-0.114049
-1.90665
-7.23488
-6.26765
23.5991
4.27493
4.11881
4.32001
1.26086
-10.9959
-11.179
-10.5225
-5.64784
-9.17267
-9.04759
1.41884
0.961163
5.66625
3.61432
3.76705
3.4965
3.49394
3.52113
3.43448
22.0429
3.14459
2.71538
2.96493
2.67394
2.9743
23.796
21.1125
-0.754693
-1.48745
3.37788
3.45759
3.48442
3.31903
3.18415
2.62864
17.6314
17.9531
3.50665
21.0484
5.11291
4.62344
-10.068
-10.5366
-11.2321
23.4229
4.24511
3.89092
24.0139
24.4287
24.3425
9.0283
8.76236
9.02533
-2.69694
-9.0132
-8.05634
4.14368
3.78682
18.0923
18.2689
18.6674
1.22837
0.65307
17.5437
25.5526
5.88676
-9.44445
-9.42655
-8.33085
22.0579
22.1254
4.10838
4.17017
3.73456
3.3324
3.15084
3.29787
16.5757
24.0515
0.74316
20.4818
5.35752
5.35828
-14.6819
-15.4558
19.8014
19.6039
1.45127
1.11066
0.752007
0.21272
0.0546066
0.927168
-7.99345
-7.37809
-1.69119
25.1175
24.342
-11.7813
18.6172
18.0875
-17.526
-17.4907
17.4379
-9.78016
-10.6108
20.8615
1.98097
2.29187
14.2761
14.6754
-14.1324
-11.2534
21.7202
7.03321
7.16526
-1.16178
-1.44699
-8.58075
-8.28355
24.35
24.3395
-10.4666
4.55891
4.14895
24.5366
4.43253
4.92309
13.6242
-13.6727
-14.475
-13.5147
5.18278
3.36286
3.71335
3.37338
3.46434
3.64919
-9.60301
23.1749
3.16094
3.491
3.55671
3.46699
1.79505
1.3901
3.0994
3.15433
0.204234
0.214599
7.94026
3.26798
3.42305
21.4745
21.785
-9.83785
-10.3645
-10.5654
-10.3484
19.2507
-10.9429
3.16659
3.35897
-1.67358
18.2798
18.2462
21.6243
22.0099
21.6188
21.5631
2.93436
13.6079
13.1951
13.0338
-3.51759
-3.06055
-2.37061
-1.91403
17.5011
16.5001
17.9313
18.6225
-5.70006
-6.43571
-6.68976
25.8416
26.0371
20.7372
20.6453
17.3584
17.7855
17.4166
17.3164
-14.7572
-10.8475
0.499747
0.353263
-5.63986
-8.44548
4.06211
4.3833
-9.9208
-9.58575
-9.58051
-8.57176
4.61542
4.47667
1.2272
1.18218
2.30907
2.45017
18.9586
19.2707
18.6633
18.2185
3.58273
3.51358
3.34821
3.5576
-0.865827
21.6387
2.47413
2.74215
2.98255
2.80822
6.48587
-9.94694
-9.41976
-10.0372
-5.54748
-6.12225
-5.73438
-5.94674
17.7776
17.3121
17.7702
-4.94539
4.65057
-8.31386
-6.74175
-9.1345
-9.19739
-8.51486
18.702
18.4903
18.8122
-7.38663
-10.9632
-10.8958
-10.7992
-10.8501
-9.16032
-8.6828
-9.24403
19.0131
18.5018
18.3739
-2.15823
-1.71358
-0.193681
-0.800265
4.49469
4.40108
4.58814
2.12017
2.40956
1.87406
3.88358
4.08137
3.86073
3.62131
3.60065
-10.5419
-10.3164
-10.4642
-10.5897
-9.74516
-8.10677
-7.33708
19.0377
18.4821
18.3663
-2.89105
-3.35519
-5.91212
20.5134
-3.81736
-4.12899
-6.74621
-7.2009
20.1967
19.5606
16.1308
16.4329
19.991
19.5877
2.12849
1.92642
-13.9755
-8.24624
-7.342
-8.0044
-13.056
-13.6282
-13.7171
-4.64363
-5.27809
-5.57542
-6.12089
-8.13594
2.99797
2.4827
3.32997
3.32015
-21.9862
-21.6894
-11.4508
-11.7955
-10.5416
-11.474
-7.29931
0.963927
3.73625
-21.4015
15.4902
15.9275
3.58787
3.5424
3.41294
20.3311
20.3094
20.1807
-8.69753
-7.72078
2.52632
2.21394
2.4788
3.42954
3.22511
3.20264
3.26216
2.21874
2.5414
2.63795
-6.14723
-6.37
18.0731
18.372
18.634
2.82292
2.03599
2.99788
3.29795
3.6998
3.02402
-8.22451
-7.89856
-8.19082
-7.79976
-10.3615
19.3771
19.3997
-0.0870299
-0.69048
-1.44039
-0.780721
20.4493
20.0874
19.7853
20.2813
5.61345
5.80206
5.80228
-2.28199
-1.3401
-0.624041
-0.757243
-0.623603
-1.06496
-1.76465
16.7416
17.7899
17.1259
17.4251
21.5615
-6.05631
-6.36248
-5.63584
16.3223
15.8148
15.578
18.0004
18.5177
-6.95042
-7.81395
-7.1052
-6.94744
-4.67327
-4.12669
2.8285
2.42545
2.72577
2.61524
3.41611
3.82862
3.12506
5.28447
4.83336
2.5861
2.92359
17.9112
18.1339
17.8368
1.08368
0.90923
2.29415
2.32456
2.32089
2.44805
16.9318
17.2737
17.2554
-6.61349
-7.01675
-5.70867
-6.88798
3.81978
3.85251
3.6721
-7.1091
-6.84986
-7.62367
20.2591
20.3337
18.274
18.1692
17.9356
19.5795
19.3361
19.0568
19.0134
20.1928
20.3264
20.1432
3.19069
3.38658
3.21352
2.95517
-11.8628
18.5584
18.9201
19.4233
19.2642
-11.5725
-11.427
-11.5049
-11.3171
-5.15676
-4.63661
-5.60372
-5.98366
18.7748
18.7866
17.893
23.2017
23.2087
23.2607
0.630563
2.64639
2.23077
2.416
14.6382
5.18625
4.90179
4.01886
-7.92214
-12.0735
-1.30534
-9.71326
-9.84929
-9.63619
-9.11552
-11.8312
-11.7333
3.29875
3.29722
2.93812
18.5577
18.2909
18.1167
3.594
3.47868
3.46496
3.87737
21.9534
22.0419
21.7304
22.0082
-4.88066
-4.66337
-4.37441
3.88678
3.71202
3.87399
5.19922
4.3224
4.82684
4.76697
-6.78288
-6.90808
-6.27056
-10.6407
-10.6339
-10.5614
5.298
17.2819
16.6124
16.1875
16.5978
-4.6029
-5.13374
2.53926
2.37855
3.51462
-0.133056
-11.1849
-11.0614
-10.5841
1.04595
1.9525
0.779219
-8.06292
-7.8184
-7.27415
-6.95981
-8.93468
-9.19109
-13.3333
-13.0223
-12.3477
0.890975
0.595516
-0.288574
2.50239
2.43451
2.42257
-8.0267
-7.76372
-7.86646
-7.58569
-23.2283
-22.4413
-2.99471
-9.62018
20.2208
21.5959
3.78918
3.41454
3.83787
22.909
-23.4261
-1.41594
-0.946924
-1.5864
8.06141
8.06872
-1.91572
24.8268
1.8992
1.7655
2.11164
1.9204
1.88137
1.51541
1.56583
-5.36157
-6.38236
-5.62496
2.01266
2.63142
3.15917
2.96979
2.71554
2.97112
-3.09172
-3.39096
-2.99731
3.57914
3.41936
3.3341
3.16634
-11.6306
-10.9941
-9.7364
-9.21788
-2.00622
-0.0625831
-0.496001
-0.00673963
-0.0575822
-5.53251
-5.14531
-9.71665
-9.28475
-9.96197
-9.91468
-1.72132
-11.8276
-11.784
4.2435
3.45259
3.63804
3.8193
3.60732
19.6627
20.2138
20.1056
-4.31782
-4.03338
-10.4741
-10.8405
-10.6334
-2.99098
-2.56683
-1.70879
-1.00453
2.75534
2.34473
-12.7426
-14.4198
-12.8536
3.54506
3.51053
3.69746
19.1762
18.5225
18.0952
18.7426
18.3235
18.3851
1.6522
-4.4328
-5.20848
-5.22983
-5.26382
-4.44184
-4.77145
18.9368
19.3574
-3.46125
-2.46217
-1.79434
-1.858
4.66846
3.95528
4.23332
4.49656
-2.48313
5.84866
5.77791
-8.61764
-9.12762
-9.22439
-9.24663
-9.37032
-9.66336
1.20002
2.91056
3.25158
3.07323
-0.669427
-1.17535
-1.52482
-1.58129
22.4049
19.3783
20.1416
-13.6959
-14.8508
-10.0213
-9.21446
-9.82297
-9.1149
-19.1855
-3.25694
4.46684
4.7328
-16.3842
3.29579
3.13358
-7.77184
4.27187
4.36352
3.62202
3.71097
20.7898
21.0591
1.89591
-10.4123
-9.70199
-10.3697
4.09345
-5.08093
-5.66511
-5.46452
-4.76357
-5.39227
-3.89323
-4.52341
2.44273
2.21034
19.9323
-8.73964
-8.40935
-8.05162
-8.93183
18.1713
17.666
18.8229
18.9484
3.45118
3.06714
2.82827
3.27159
3.20718
20.8802
-4.486
-4.16281
-4.21395
-3.27663
-6.82651
-7.62892
-7.70758
-7.37852
1.58513
1.51618
15.724
15.3638
15.9175
-4.67509
-4.55779
-10.525
-3.3102
-3.54777
-2.27327
-2.0408
-0.316466
-0.979532
21.9733
20.1149
-5.46863
-4.94746
-5.63023
-5.93275
18.4909
18.7434
18.3037
23.7365
3.4141
3.69425
3.39309
1.31116
1.24846
3.23739
-5.07512
-1.40927
0.0293629
-0.453052
3.9789
3.68045
-3.46648
-2.65709
-3.87277
-14.1939
-10.9608
-10.8858
-10.9228
-0.86614
0.276732
-0.638076
3.05664
2.86243
3.17396
2.59789
2.843
20.8333
21.211
21.2099
21.4842
23.7218
-2.75581
-2.07877
-2.96491
2.22069
2.5404
2.8411
22.5652
23.7768
4.8675
-10.5845
-10.665
0.985956
1.04978
-10.0352
-10.104
-9.76458
3.41094
3.42072
3.59269
3.4834
2.52486
-0.803193
-0.58712
0.287482
0.645477
2.33137
2.02251
16.3172
16.6326
3.80104
3.86995
3.91264
3.75096
-12.0004
-11.0452
-12.0054
-9.81077
-9.63071
-9.74667
-9.14104
-8.24294
-7.40988
-8.43798
-8.7457
-13.6874
-11.1252
-11.0709
-10.9627
22.4944
21.18
21.279
20.636
20.9478
-8.42005
-8.48313
-7.86702
4.46282
4.31939
4.50824
1.66768
1.71154
-2.0819
-2.73585
-2.41888
-3.40006
1.16473
0.56794
2.34641
2.00589
-0.287502
-0.997362
-0.17169
0.00173818
3.20767
3.28668
3.43949
3.01717
-3.2789
-3.2935
-3.35781
-18.7259
17.8805
18.114
-6.1335
-6.86629
-6.61948
-6.21908
-8.0073
1.63009
1.04716
1.88674
1.53841
6.21568
5.12373
5.94432
5.47743
5.03942
-10.5937
-10.7271
-10.2166
-17.6963
20.713
20.7525
3.91788
3.83892
3.4696
5.18448
5.38444
5.12321
24.929
-12.4488
-13.1636
-13.226
1.78272
-11.3001
-11.4819
-11.3294
20.6787
20.4922
20.3335
-11.5712
-1.49782
-0.921257
0.00602753
0.410332
24.9591
-11.5594
-11.4003
-10.5603
-12.3629
3.58025
3.3962
3.48118
18.7387
18.8068
-10.0758
-10.0351
21.9702
0.842747
0.0304869
1.16054
1.98828
-9.24279
-8.63125
-8.16736
20.2298
1.53462
1.55208
3.03131
3.14357
2.76839
2.99339
20.0731
20.5519
20.355
20.8129
19.382
17.8905
-7.91943
-2.02455
-1.32776
-1.84843
-1.9697
19.1416
19.8484
19.1149
19.3469
-5.26068
-5.48304
-7.68655
-7.13754
-7.48095
-7.61281
9.28043
-6.57337
-6.96872
-6.82649
-7.33721
2.14919
2.99849
3.15236
-8.03569
-7.6141
17.988
17.7486
3.42351
18.8527
19.0515
0.62564
4.83248
2.37733
2.40384
2.67228
2.49558
-6.00335
0.205692
-15.2068
24.2181
24.2253
22.6922
-14.8369
24.3335
24.22
24.193
-18.6243
-0.69269
-13.414
-0.086798
24.1183
23.0999
23.7176
23.8969
-1.87566
-0.0246872
0.00115108
0.0717392
24.4257
-5.42415
-4.5197
6.51006
7.43578
-4.22139
-4.73563
-1.26128
-0.140263
22.9427
24.4372
26.1274
-0.474291
24.7259
23.3091
23.7823
25.4559
21.2528
7.01449
1.90917
-14.4379
20.8128
23.3563
26.2299
0.428703
24.2718
24.2548
24.2428
-2.4352
24.1385
-4.33836
-4.78917
23.9169
-4.30268
24.0567
-11.6808
-12.137
22.4034
22.669
24.0863
1.02262
-3.07034
22.3009
1.03349
0.806626
-14.7751
23.2978
23.8315
0.0339243
-0.509644
0.609534
0.850781
-17.097
-17.5209
7.57761
-22.5569
24.6696
24.7906
0.509873
0.273279
26.0541
24.9348
-17.4429
22.5745
24.0638
24.2759
10.1154
11.7233
11.009
-7.18986
24.1959
4.59598
24.5876
24.9188
22.4612
8.78533
8.0906
22.3629
24.5919
25.5102
25.5751
0.878293
-7.51429
6.06337
7.01213
6.37242
-3.7378
22.9511
-1.79195
24.7216
24.6557
24.7423
7.29264
22.8348
22.4039
23.0757
21.0069
20.9295
20.6714
22.443
23.5078
23.4571
23.0898
23.4735
23.2635
21.2184
24.3393
24.3372
20.3008
19.3722
23.4288
23.3211
23.7231
23.7815
23.7156
19.1991
19.282
22.9745
23.1413
23.1995
24.7643
-24.7703
23.8933
23.437
24.8736
24.9121
23.4177
25.7946
25.7128
26.1873
26.1471
22.4635
25.7011
1.34988
-18.933
-10.3546
23.117
-24.1941
-23.2001
-11.3624
22.4146
3.02409
24.239
-0.616939
22.5522
3.86842
25.3488
24.5213
1.43627
24.7364
0.360206
0.0490529
1.97822
2.26776
22.5707
24.1563
-2.82367
0.821879
1.10571
24.5122
-11.7152
-11.7258
2.77641
24.1391
23.9383
24.7942
24.6372
24.6046
24.5981
24.2832
23.8457
3.59771
22.6561
23.8455
23.7897
23.927
23.7851
22.9721
22.9813
-2.70534
11.4753
24.4639
24.854
1.68224
1.71253
22.7798
22.7218
21.3864
21.4183
21.3377
1.53183
-13.559
22.7541
23.3483
23.3694
-0.869877
-0.684016
-0.74273
-0.100867
25.5457
25.3867
2.02958
-12.164
20.9449
20.4313
19.8734
23.612
-1.84127
0.243307
22.8358
22.9669
24.4825
-3.07099
-2.8785
20.193
20.3444
23.375
-6.23239
-7.81227
19.7085
19.9911
22.8668
22.971
2.21135
1.90128
-0.300236
-3.62286
-4.16525
0.467424
0.405238
22.2041
-0.784487
23.1155
20.817
-3.33536
22.7934
21.5796
21.8835
-20.3304
-0.404426
21.9736
22.1097
21.3403
24.5151
24.5609
7.41483
25.3469
22.6116
25.5719
-0.901791
2.47291
2.35967
26.0832
4.53562
25.1095
-18.4829
-2.09685
-1.6808
-0.441687
22.4362
22.5006
21.3657
-21.4638
22.8492
20.8587
22.3357
-3.5454
-3.49621
24.5813
22.0849
22.1536
22.2061
22.259
-22.1547
24.5327
-4.92817
22.0857
20.7781
20.5989
20.9916
23.0575
24.636
-1.11705
7.64369
7.05226
0.0759107
0.162688
-15.7129
22.4193
-15.7927
21.2464
21.2094
8.34416
9.14604
8.15042
-3.0725
-2.61876
-15.7307
-0.388645
21.486
1.34911
1.468
1.6012
21.3278
22.5671
-1.63705
-2.26078
-0.241828
-2.17268
0.78857
0.353696
1.77309
-4.37015
22.3593
-8.00011
-6.32077
1.39084
1.02384
2.38912
25.3978
25.1877
-0.548061
-12.3893
22.3515
20.493
20.8898
19.5499
19.2427
19.1675
-9.86268
23.7181
22.841
22.8638
21.4956
23.2047
1.88001
1.78948
2.26481
1.95226
23.7563
23.7304
-2.97915
23.4254
23.3973
20.301
20.251
19.8376
21.2639
21.1337
20.8763
1.05912
1.16753
1.33519
4.76098
1.95554
0.0840298
3.60917
-5.6777
-5.46489
24.0207
9.74391
-4.99358
-4.00907
-4.38928
-10.1728
-9.77921
3.59132
19.9466
19.4774
19.4939
24.7532
-0.0768952
24.3275
-9.55148
-9.83053
-9.89623
-9.62365
24.4602
3.20133
2.92919
24.2594
20.1588
-5.22137
0.710109
0.816688
-0.541079
-0.455338
24.8577
20.2117
-6.46252
-7.23873
-6.70458
-7.51484
24.621
-2.08344
-2.8691
-2.19792
0.748983
0.713317
-2.32796
21.5581
21.3616
-0.729411
22.2749
-7.29856
-7.06052
-7.42864
0.463173
23.3425
-0.842891
-0.422882
23.6608
26.0227
2.05143
1.68055
8.16117
9.47132
19.9141
19.8937
23.5264
-7.97088
20.4036
20.404
19.9961
20.1702
0.663755
-1.28749
-8.48165
-8.93132
-9.42496
24.0755
24.0736
-4.91506
-5.08893
-5.00819
-9.34151
-7.38867
-11.6078
-11.9889
20.1695
-4.98856
-4.71637
24.3182
19.4549
19.3651
19.2191
18.691
18.8466
18.9588
-1.25736
-2.61973
23.4616
-3.75855
-4.65203
-4.85668
1.70201
1.12649
23.2727
0.715028
22.1536
22.9366
-3.0722
-3.24943
-2.51032
-8.00966
-7.48582
15.2454
14.5897
21.4836
21.1023
18.3409
18.9378
18.8301
19.3174
19.7669
19.5863
19.3673
21.4053
19.7416
24.1284
25.608
11.2693
-10.5575
-10.6691
-10.3392
23.8213
24.2638
3.6764
3.39789
2.20004
2.29823
2.09422
23.3786
-10.4317
-3.42452
26.3597
-0.0170467
-4.20289
19.1258
18.8584
18.7665
-0.73512
22.4523
24.9124
-6.67299
-3.40246
-0.587471
19.7078
19.8361
0.909834
-11.5307
-11.9602
25.0681
-5.22759
-9.16384
25.4265
-1.02514
-1.70617
3.52101
3.60743
-0.643825
22.9807
-16.9558
20.55
24.6182
20.7106
20.3264
0.513924
0.186658
21.342
21.3995
21.0232
23.4898
23.4658
0.20065
-0.503475
0.980682
1.01058
3.781
3.5286
24.6135
19.9184
20.1066
23.3546
23.324
1.94315
1.80609
-4.18303
-2.19338
-1.96444
-0.275742
-0.632931
0.787999
0.604761
12.9815
0.851137
0.85338
-9.45327
-9.26028
19.1143
19.1931
-5.91422
-5.32622
0.527892
-16.0013
-15.3889
20.1115
19.7825
19.6329
19.6082
-5.32271
-5.61942
2.26147
2.14254
2.0006
1.34012
1.94063
2.11273
21.7978
21.8422
1.49351
1.74287
1.6135
22.6488
21.713
6.77927
7.76364
21.4681
19.7792
19.5688
19.3687
0.268647
-6.95239
-5.81059
25.9347
21.6531
21.522
-8.81895
0.711517
22.3986
-1.62259
-1.50262
-4.14061
21.9542
22.1335
4.32725
4.44293
4.81548
4.8214
3.36948
3.29759
-2.04258
-1.86141
-0.133136
-0.368345
0.698917
0.65971
0.690325
4.8523
-7.38807
-2.04053
17.2841
17.5099
16.0454
17.0001
20.9359
20.8355
20.8159
3.39417
3.29571
20.8034
-4.16326
-12.4037
22.9505
1.24023
1.3317
5.86925
0.666785
-0.612014
0.165026
0.429612
19.3083
19.5417
-0.731983
-9.5527
-9.00059
19.4441
2.82941
2.19098
-5.49652
0.636895
0.689304
19.6044
-12.0331
0.473118
-1.48096
-0.417731
0.00273028
20.8049
20.63
19.8279
19.2636
20.2524
20.9074
4.66906
25.8964
18.9589
19.2548
19.1236
-5.96312
22.2937
-8.33804
-8.87664
-10.8725
1.78513
1.64004
1.92541
3.32206
-5.7449
-6.61501
2.5949
3.10233
2.81867
1.63686
1.35795
1.30883
0.0692713
-0.0557605
19.2362
19.0605
24.2815
24.4525
24.2914
1.00619
0.91134
1.45705
1.55385
-12.2558
-0.685187
5.59132
6.59865
-4.98194
-5.06238
-8.74066
-9.22284
3.16041
3.10844
3.02735
9.15755
8.45677
9.84902
-0.300058
-0.348451
-0.132747
1.53858
1.84679
1.55758
17.69
18.7978
2.61229
2.47815
2.21203
-9.90494
-9.47957
-9.85458
1.54758
1.46424
-10.6398
-10.8953
-4.43171
-7.13012
-6.9827
19.6232
19.4904
-16.1178
-15.5024
19.5905
19.1604
19.0661
3.05523
-2.95428
-0.414874
18.6437
24.2008
0.446898
25.4391
2.77874
2.8602
-8.23545
24.8531
2.81791
1.44102
1.30927
3.0469
2.98559
18.8633
19.0207
0.697081
5.33861
5.18693
-4.14407
4.42619
4.17044
3.90226
0.348176
0.0138096
6.23288
3.60856
3.62187
5.37017
5.71717
1.03779
1.35247
20.8963
20.8315
2.90576
3.17299
-21.7474
3.96676
4.14736
-4.43385
-5.60794
3.45128
3.43173
5.63945
5.96977
4.19332
4.05766
-2.36275
-2.5431
-2.75357
20.7043
20.8866
21.0503
19.3112
19.5582
21.9065
-1.55265
-1.44224
8.33985
-6.28255
-6.32699
1.37829
1.16409
-5.73436
-4.53462
-5.74056
-7.3668
-7.79566
1.54325
1.68191
-0.363593
-0.115802
18.2561
17.4946
-10.1749
-9.86362
-7.46524
-7.71708
-7.91876
-7.95702
-7.42811
-8.9963
21.5804
-5.42186
-4.88374
-5.09742
20.6923
20.7094
21.3088
18.769
18.2139
-0.718884
20.3628
20.3135
18.5794
18.5043
1.0016
1.16639
1.25679
3.49117
3.03014
2.99171
18.2953
18.4914
21.9044
21.7289
21.0246
20.4687
20.4392
-3.04275
-3.79394
-5.71869
-12.4002
-12.1909
20.682
20.6523
20.9529
26.2874
4.12134
4.59043
5.09606
-0.303186
-0.257726
3.52686
18.2773
18.8636
18.4387
18.9634
18.0889
17.2651
17.944
18.5393
1.31094
1.298
-4.98323
-4.21441
-4.82478
-3.34608
-3.07344
-19.3243
-2.36438
-2.59393
-8.31347
-1.95757
20.794
20.8061
-3.99177
-3.61835
-3.63703
1.38904
1.32465
1.13825
1.15824
0.667367
21.9862
2.1461
2.59127
-0.177901
-0.0536469
-0.172617
-15.4884
-14.9322
-13.2919
25.9716
25.8425
-13.9665
-13.4509
0.517484
1.15269
21.2529
21.3452
20.7709
21.2854
-0.848845
-0.806276
-3.39721
-3.74928
-0.078334
-0.312569
-0.605111
17.7078
17.7274
16.3957
0.827884
0.754449
0.788281
-3.035
-3.52257
-3.55245
-4.57454
0.965482
1.92097
2.62339
2.12496
0.96052
0.864987
0.792267
4.04445
-0.960967
-0.706811
20.4702
8.61465
0.733796
20.3074
19.8291
-14.7815
21.8286
1.12151
-11.3582
-11.9028
-8.89244
-11.8906
12.4114
7.86955
-1.8452
6.37217
-3.14015
-1.94272
10.6453
5.2677
-15.8772
8.80491
4.41191
-9.30301
6.45291
14.0978
13.3444
-8.03423
7.40911
5.10055
10.7084
-8.8959
-14.5477
11.2341
-12.9351
12.484
6.35671
2.72457
-6.83835
-12.1197
12.263
14.6404
6.85595
7.12138
7.09015
17.1845
10.1248
-0.450874
-1.281
-1.46763
-19.3306
11.2005
12.3602
11.8979
1.88178
2.84128
2.68335
3.44152
5.11522
10.406
-15.1524
-15.2146
-6.50755
7.28216
-11.6496
1.60365
12.2509
-1.8241
-6.53769
12.134
2.19571
-2.30032
-7.45454
12.1433
13.4571
-27.0247
12.0823
-6.32106
0.262625
17.4879
7.13581
-11.5825
21.4997
21.8959
-11.0562
-12.0396
6.88962
8.24956
8.20938
-5.89754
-0.43381
5.25382
2.4081
13.8294
10.0336
14.4872
-3.85808
-3.93794
11.1391
10.587
11.3502
-20.1299
14.759
14.5079
-3.11674
-3.3317
3.00376
5.56116
7.49605
8.10801
-12.1805
-13.3078
9.98984
10.9497
14.6421
15.3383
0.278866
1.2304
-16.3327
-17.2727
0.0810177
0.887071
-12.4816
-8.01742
-9.06606
8.6982
8.21104
-12.1742
9.70487
8.70497
4.56788
5.04726
5.75206
6.32892
-13.9433
11.9047
8.49255
-1.43862
1.76469
-12.1745
8.03838
-15.6777
-1.83809
16.8665
-1.71939
1.90417
11.3385
6.54056
-0.400561
0.109678
-11.4078
-2.23235
15.3914
2.28448
1.43703
-1.31967
5.77358
-0.0699515
-0.918916
8.32134
9.42078
9.0549
7.02872
18.2927
-2.84623
15.2196
12.577
13.1562
1.94888
1.25493
17.3702
17.5764
5.16883
-21.0173
-0.0928188
0.651208
-10.1006
-10.2011
10.5156
10.4909
-7.49718
-8.08483
-8.89475
15.7272
16.0622
9.12832
-26
9.70307
11.2516
11.4895
-15.2965
-3.39001
6.95536
-15.9459
5.8914
-19.9744
-3.09824
-3.12018
3.07873
2.68692
-12.6991
-1.38482
5.98531
2.67407
2.12187
1.33664
2.05848
10.1543
14.073
14.3907
17.3553
-1.64993
-2.3419
-11.4562
10.5904
5.55048
-13.9908
7.66105
7.59861
8.11431
1.14989
1.738
10.8635
6.00834
6.1935
2.31527
2.53586
10.6504
9.6976
3.06555
3.79218
-3.95022
11.9823
11.3379
-12.9774
1.96355
2.08784
1.70662
2.45337
2.62071
2.52602
-12.3008
-1.97012
1.36829
2.51323
3.29559
5.6823
2.69976
2.36577
13.9406
13.5121
3.30935
-10.1859
12.8837
-14.7018
-0.665261
-0.153479
13.3797
13.0587
9.93101
9.37822
-12.9616
6.22302
-3.13775
-3.05995
7.6095
8.44591
5.83032
-0.0165429
0.253538
0.784292
15.0074
16.0475
9.25268
9.66539
10.5591
11.2323
10.9522
11.1422
5.01044
4.3151
-13.3657
-13.5966
-0.526538
-0.327401
-1.0339
-1.19783
21.4907
21.4718
21.7135
11.9615
11.6108
11.6535
5.65312
5.49068
12.4806
12.6157
12.5576
3.62488
2.57384
15.9726
14.7754
12.3134
12.1711
12.5171
12.8806
-10.9985
17.6446
17.7239
-0.202467
-1.28001
9.76011
9.44549
4.04199
4.71933
2.41611
3.09419
10.1402
6.56346
1.01329
-5.93347
-6.37437
-12.1982
2.07553
1.69595
2.34372
3.07281
9.10533
-8.18498
-8.98529
-8.08775
-2.18409
0.185846
1.05516
16.4891
17.4339
3.25564
2.71456
12.7686
13.1019
-2.77294
-3.07025
15.8727
16.1218
2.6135
3.39727
10.7427
10.9728
11.3427
10.9439
9.12103
9.36305
-3.26297
-2.17803
11.4248
11.3784
-14.3653
-13.2336
22.2959
8.97682
10.4269
10.6481
-7.40923
-7.97933
-1.91264
-1.71696
-3.30668
5.48637
5.50122
2.82547
2.26238
11.5701
11.825
4.6962
-23.4945
-13.5712
6.22174
8.97584
13.3401
10.9863
-0.620436
4.3435
3.86272
9.49617
10.265
15.9487
16.5687
15.8432
11.4636
10.8244
-12.0785
-3.44397
11.3611
11.58
11.4439
11.9558
3.86637
3.64781
3.37096
3.48486
1.94705
4.07661
3.26099
6.49123
5.76861
6.01239
5.97906
-11.2719