/*--------------------------------*- C++ -*----------------------------------*\
  =========                 |
  \\      /  F ield         | OpenFOAM: The Open Source CFD Toolbox
   \\    /   O peration     | Website:  https://openfoam.org
    \\  /    A nd           | Version:  6
     \\/     M anipulation  |
\*---------------------------------------------------------------------------*/
FoamFile
{
    version     2.0;
    format      ascii;
    class       surfaceScalarField;
    location    "800";
    object      phi;
}
// * * * * * * * * * * * * * * * * * * * * * * * * * * * * * * * * * * * * * //

dimensions      [0 3 -1 0 0 0 0];

internalField   nonuniform List<scalar> 
44596
(
1.53808
-2.16457
0.626495
1.53808
1.44653
-1.44653
1.93785
-0.491315
-0.0937216
-2.1485
2.10159
-0.563517
1.31
-1.31
0.215952
1.81675
-2.21229
0.765761
-0.267245
2.30059
-0.800482
-1.20739
0.800482
1.30111
-0.560127
-1.34342
0.560127
0.749876
-0.593544
-0.825738
0.825737
-1.17061
1.38656
1.1943
0.636523
-1.83082
0.043527
1.50306
-1.54659
1.42539
-1.42539
-0.146746
-1.67574
1.82248
1.54993
-0.087785
-1.46214
1.12308
-1.12308
-1.10478
1.10478
1.12469
-1.12469
0.240212
1.24602
-1.48624
1.37526
-1.37526
1.46881
0.0811209
-1.31582
1.31582
0.267166
1.34767
-1.61483
-1.5806
1.5806
0.600135
0.582085
-1.18222
1.94021
-0.514817
-1.25244
-0.218686
1.47112
-1.42855
1.42855
0.706489
1.29332
-0.793445
1.49993
1.47134
-1.76689
0.29555
-1.62208
1.62208
1.05747
-0.817257
1.24514
-1.41468
0.169545
0.962313
-0.962313
1.20226
-1.349
-2.31132
0.831484
-0.831484
1.00848
-1.09627
1.83996
-1.92775
-1.58774
-0.614443
-0.790783
-0.796958
-0.898039
0.898039
-1.03981
1.08334
1.98137
0.063517
1.48713
-1.55065
-1.53486
0.134952
1.3999
-1.55065
-0.457526
0.00729966
-1.43584
0.112723
0.211045
0.259743
-1.81039
-1.50715
1.81039
0.529962
-1.20799
1.99877
-1.43584
-0.941788
-0.472892
-1.56323
1.56323
0.896309
-0.390936
-0.505373
-0.814133
0.416122
0.398011
0.703379
-0.112387
-0.590992
-0.00120423
-0.090571
0.0917753
-0.0589812
-0.0628631
0.121844
0.0608261
1.44223
0.853957
-0.793131
-0.00193083
-1.46021
-1.20662
1.20469
-0.0384627
-0.00347123
0.0419339
0.125121
1.06918
-0.792759
0.555459
0.2373
-1.66136
-0.0143708
-0.348464
0.928317
-0.579853
0.416607
0.593349
-1.00996
0.0488629
-0.882167
0.833304
0.0093166
0.0655313
-0.0748478
-0.034903
0.00956321
0.0253398
0.0953473
-1.02541
0.930066
0.805038
0.637195
0.710216
-0.609248
-0.100968
1.24516
-0.141715
-1.10345
-0.16306
-1.09281
1.25587
1.52996
-1.69302
-0.021078
-0.013825
0.00489976
-0.0433625
-0.934128
-0.727237
-0.0366288
-0.897499
-1.0757
-0.00703562
0.0323739
-0.0253384
-1.31158
-0.148631
-0.442965
-0.868617
0.0111165
-0.803876
-0.803016
-0.678755
-0.606586
-0.32653
0.933116
-1.19815
0.979462
0.000821167
-0.000821165
-1.10207
1.25312
-0.151048
0.250365
0.905065
-1.15543
0.82262
0.0680545
-0.890675
0.0160121
0.912305
0.912321
0.897935
-0.479122
0.895729
-0.888313
-0.318307
-1.13106
-0.306826
1.43788
-1.19666
0.259155
0.937502
0.535812
-0.850766
0.314954
1.05596
0.943946
-0.742519
0.753585
-0.0110657
-0.881603
1.05115
0.84824
-0.211717
0.253829
-1.18819
0.93436
-0.980308
-1.03035
-0.284839
0.988218
-0.898137
-1.41318
0.934766
0.308401
-1.24317
-0.00931287
-1.41608
1.14037
-0.206009
1.22324
0.758131
1.07585
0.924084
-0.631931
-1.29582
1.0749
0.171128
-1.10576
-0.876826
-1.8521
0.746347
-1.63698
-0.193841
1.15572
-0.733864
-0.421851
-0.103474
0.803547
-0.700072
-0.953995
0.0853773
0.888924
0.116517
-1.0583
-1.31933
0.420287
-0.91247
0.492183
0.82288
-0.611836
-1.52431
-0.80469
0.331797
0.351026
0.715945
-0.775484
0.0595392
0.80836
-0.695638
0.0477346
-0.038418
0.0374209
-0.0444565
-0.535571
1.02775
-1.23344
0.697867
-0.000946641
0.000946656
0.863987
-0.877635
0.0136475
0.130124
0.000595698
-0.000595687
0.00059571
-1.10161
1.10161
0.860515
0.800209
-0.670085
0.759507
-1.25689
0.49738
-0.720669
0.569796
0.150873
-0.0104534
0.396997
0.45696
-0.566408
-0.236609
-1.55563
1.4981
0.0575329
0.206706
-1.08831
1.52996
0.946291
1.38975
-1.47037
0.0806185
0.00123115
-0.00123115
0.000635473
-1.00486
0.892469
-0.861956
1.16377
-0.301813
0.817129
1.41726
1.29351
-0.711426
-0.638417
-0.371539
0.655094
2.35935
-0.984098
-0.146999
-0.923066
0.230403
-0.643284
0.412882
0.0617185
0.798796
0.285385
-0.876377
1.04277
-0.0633056
-1.18458
0.945445
-0.247578
-0.130256
0.796126
-0.112422
1.23524
-1.35838
1.35907
-0.000688407
-1.04182
-0.504767
-1.53313
-0.767373
0.384898
0.0463097
0.628447
-0.674757
1.20981
-0.153851
-0.148574
1.70599
-0.483303
-1.22269
-0.146113
0.756511
-0.405486
-0.625126
-0.22564
-1.40216
1.33918
1.96567
0.0039748
-0.00309968
-0.000875118
0.00141139
-0.00650187
0.00509048
-0.0277821
0.028343
-0.000560844
0.0410996
-0.0207113
-0.0203883
-0.00462067
-0.00467112
0.00929179
-0.00943367
0.00481299
-0.0582236
0.0148193
0.0434045
-0.0171505
-0.105923
0.123073
-0.00510197
-0.00472728
0.00982925
-0.0632985
0.0480514
0.015247
-0.112318
0.0740172
0.0383007
0.0483906
-0.00657421
-0.0418167
0.00705526
-0.00640519
-0.000650093
-0.497999
0.324738
0.173262
0.0184833
0.00160316
-0.0200865
0.00794798
-0.0059466
-0.0020014
-0.00142852
0.00142849
0.0033443
-0.00844627
0.00843606
-0.00522621
-0.00320986
0.0203436
-0.0450438
0.0247002
-0.00880002
0.00627075
0.00252924
0.00395041
0.00399755
-0.0538456
0.00315788
0.0506878
0.0456575
-0.0490286
0.00337107
0.0104531
0.0159469
-0.0264
0.0382149
-0.0277618
-0.0547378
0.0100032
0.0447345
-0.0390897
0.0564029
-0.0173133
0.00149332
-0.00149332
-0.00595257
-0.0066689
0.0126215
-0.0106237
-0.0407627
0.0452459
-0.00448329
-0.00728013
-0.0506694
0.0579493
-0.0364596
0.0074142
0.0290453
0.00330202
0.0161313
-0.0194333
-0.00242348
-0.0168091
0.0192326
0.00242548
-0.00242549
0.0142815
-0.0386186
0.0243371
0.00428569
0.00629463
-0.0105803
0.00957069
-0.00173703
-0.00783364
-0.0118525
0.0860875
-0.0742352
0.0649667
-0.0768192
0.0525858
0.0215947
-0.0741805
0.0670473
-0.0144615
0.00709125
-0.00249969
-0.00459155
-0.0030332
0.0459923
-0.0429591
0.0619335
0.00896359
0.00951974
0.0185268
0.0056682
-0.0243032
0.018635
-0.0197113
0.0196967
1.45705e-05
-0.00751811
-0.0121932
0.0545926
-0.0555402
0.000947729
-0.046065
-0.0113415
0.0574064
-0.00806534
0.00340688
0.00465844
0.0104858
-0.00750825
-0.00297757
-0.0101817
0.0351567
-0.024975
-0.0406686
0.0333885
0.00772196
-0.00737437
0.00457803
-0.00759835
0.0030203
-0.0162203
-0.0385175
-0.000846319
-0.00526022
0.00610655
-0.0215556
0.0140375
0.0120824
0.0031205
-0.015203
0.00589126
-0.0125602
-0.626565
0.300036
-0.0225988
0.012417
-0.00246968
-0.00101641
0.00348613
0.0231643
-0.023704
0.000539705
0.00747529
0.015689
-0.0122229
-0.0103759
0.0033999
-0.0156228
0.00783404
-0.0182099
0.00697038
-0.00863108
0.0016607
-0.00224914
-0.00474571
0.00699485
0.000718017
0.00917653
-0.00989455
0.0477095
-0.0377063
0.00861987
-0.0532004
0.0270554
0.026145
-0.0166091
0.0197514
-0.00314232
-0.00323291
0.0158544
0.0110141
-0.00886185
-0.00215223
0.0444428
-0.035823
0.0467503
-0.0023075
-0.0462853
0.0104624
0.0567559
-0.676107
0.619351
0.00641396
0.00407183
-0.00332894
-0.00473641
0.0621624
-0.339448
0.277286
0.172719
-0.501242
0.328523
-0.000299834
-0.00673681
0.00703664
-0.00328031
0.00665862
-0.00337832
0.02647
-0.0189947
-0.0121054
0.0315965
-0.0194911
-0.0280749
0.0115311
0.0165438
-0.0188729
0.0285946
-0.00972167
-0.0469478
0.0401257
-0.00613797
-0.00448572
-0.0159692
0.0238032
-0.00601286
0.00742425
-0.00500122
0.00660438
0.0140286
-0.0355871
0.0494245
-0.0138374
-0.0551136
0.0195266
-0.00102507
0.0205827
-0.0195576
0.00593527
-0.0190384
0.0131032
-0.0634405
-0.0488773
0.261594
-0.588094
0.3265
0.00237865
0.0480833
-0.0504619
0.0569712
0.0415089
-0.372916
-0.125083
-0.0116352
-0.00845133
0.00735735
0.0110831
-0.0184404
-0.140951
0.200696
-0.0597447
-0.00124271
0.0012427
0.0932038
-0.0338493
-0.0593547
-0.00542778
0.00832698
-0.00289921
-0.0486988
-0.0293465
0.0780449
0.00835152
0.00567712
0.0112806
-0.00645073
-0.00482987
0.00697969
0.012717
0.012915
0.00238216
0.0103349
0.183741
0.118682
-0.302423
0.0192989
0.00605694
-0.0253559
0.0017791
-0.0134143
0.463417
0.125362
-0.588779
-0.747784
-0.134383
-0.0043152
-0.0210407
0.0359501
-0.00357616
0.0316349
0.0267626
-0.0219326
-0.00482993
0.0128118
-0.0381501
-0.00748319
0.00134521
-0.0083655
0.000882313
-0.384978
0.48211
-0.0971325
-0.506295
0.49523
0.0234088
0.0329941
0.0399526
0.0431053
0.00993468
-0.0530401
-0.0501846
0.040463
-0.000760152
0.0406487
-0.00018575
-0.00925889
0.0508595
-0.0416005
-0.0553238
-0.0057026
0.00410643
0.00159616
-0.0778477
0.0291487
-0.0093927
0.0550502
0.0105824
0.00821181
-0.0187943
-0.00955736
-0.0141467
-0.00593489
-0.633907
0.496614
0.137294
-0.0386446
0.0265841
0.0120605
-0.000429741
-0.0266162
0.239978
0.236316
-0.476294
0.340003
-0.100025
0.55127
-0.00784271
-0.00101914
0.00161261
0.00947047
-0.0062301
0.0302283
-0.0314325
0.0330701
-0.0281704
-0.0596029
0.328267
-0.156136
-0.172131
0.0052262
0.0057262
-0.0109524
-0.00654106
0.0101619
-0.00362085
-0.00621687
-0.0133401
0.0195569
0.00915471
-0.0153716
-0.0113508
0.00512069
0.00113305
-0.0124838
0.0109788
-0.00585811
0.0289047
0.0217461
-0.0506508
0.031178
-0.001027
-0.030151
-0.0110486
-0.0485543
0.0366012
0.000819674
0.0255526
0.00825929
-0.00137134
-0.00688795
0.00235867
0.00590063
-0.0255938
-0.0207379
0.0463317
0.0135332
0.01959
-0.0331232
-0.00114788
0.00374754
-0.00702785
-0.00461676
-0.0492288
0.0469625
-0.0266189
0.00581778
-0.00821489
0.0023971
-0.00828275
0.00670356
0.00157919
-0.0255787
0.0117537
-0.00605619
0.0316088
0.0142508
-0.0165195
0.00226874
0.0201421
-0.0181944
0.923259
0.209509
0.5907
-0.439911
-0.185215
-0.00986277
-0.00665678
0.0051018
-0.0149646
0.00832596
-0.0149827
-0.0485656
0.0107039
0.0378616
0.000514133
-0.0557895
0.0552754
0.00814192
0.0211398
-0.0292817
-0.0240888
-0.00903446
0.0407214
0.0101381
-0.011835
-0.0371935
0.0288864
0.00868111
-0.00182523
-0.0068559
0.00687558
0.0018055
-0.00819987
0.00637462
0.0197756
-0.0164736
-0.530938
0.590478
-0.511829
0.594098
-0.0822684
-0.00410911
-0.00746571
0.0115748
0.0254377
-0.0844189
0.0325102
-0.0182287
0.00472811
0.0285216
0.0118278
0.00831424
0.0168901
-0.0050623
-0.014286
0.0226002
0.0709384
-0.061826
-0.00911236
0.00302887
-0.019205
0.0161761
0.0203693
-0.00755756
0.0233982
0.325186
-0.337121
0.0119348
0.0020951
0.0091855
-0.0078999
-0.000465591
-0.0058048
0.00871991
0.499974
0.947602
-1.44758
-0.000857096
0.000857017
-0.572306
-0.0689865
0.641292
-0.820309
1.32028
-0.00102339
7.68173e-05
0.46795
-0.411194
-1.06758
1.06758
0.130385
0.945465
-0.885325
0.654719
0.230606
-0.406688
-0.478638
1.24159
-0.260043
-0.981549
0.108797
-0.0519468
-0.0568511
-0.527783
-0.106125
-0.104497
-0.423286
-0.831596
0.926943
0.185001
0.311229
-0.496229
0.368742
0.0439685
0.646518
-0.690487
0.481567
-0.437598
0.0595126
-0.0164078
0.602038
-0.620233
0.535766
0.0662727
0.134954
-0.109516
0.484061
-0.234677
-0.249385
0.197825
0.286236
0.00321136
-0.00341726
0.00020599
-1.01594
-0.144512
0.579155
-0.434644
-0.00066115
0.00066113
0.399202
-0.944961
0.545759
-0.554859
0.601169
-0.30996
0.595346
0.0801654
0.0547883
-0.608356
-0.22046
0.828816
-0.0519047
-0.0225242
0.0744284
0.00760787
-0.157489
0.0101756
0.147314
0.644265
-0.702323
0.0939668
-0.327664
-0.374658
-0.693595
0.365931
-0.920532
0.0449751
-0.99765
0.750072
-0.164346
-0.441379
-0.234728
-0.635425
0.409785
-0.131336
0.350775
-0.894348
0.503412
-0.608597
-0.285751
0.000678648
-0.00067865
0.000906346
-0.00340189
0.00249559
1.03694
-0.14802
-0.0128431
-0.671877
0.68472
0.94375
-0.616886
-0.326864
0.335153
0.219708
-0.698829
0.663356
-0.0870075
-0.576349
0.880432
0.738717
-0.315648
0.71485
0.0276246
0.0691333
0.0184638
-0.185402
0.225382
-0.0399795
0.2205
0.423765
-1.15515
1.15514
-0.493243
-0.200352
-0.752978
-0.272434
0.832177
-0.328765
0.0791989
0.274704
0.193246
-0.0036509
0.00213409
0.00151683
0.7954
-0.533805
0.302157
-0.0250397
-0.0879028
-0.00832093
0.00251612
0.814537
-0.959049
-0.456529
2.01976
1.04157
-0.542513
0.36137
0.181144
-0.26781
-0.324679
-0.333237
0.657916
0.0359858
0.247415
-1.5043
0.864495
-0.61708
-0.0821261
-0.253941
0.336067
-0.267528
1.20203
-0.0590475
0.0428272
-0.0374528
-0.619239
-0.212356
1.07433
0.249636
-0.578842
0.329207
-0.830052
-0.580416
-0.804424
0.255822
-1.06025
-0.00924542
-0.0122864
0.0547609
0.0635963
-0.941231
0.710115
-0.000435676
0.00111432
1.22324
-0.683841
1.90708
0.226075
1.03757
-0.811496
0.933074
-0.925757
-0.0901782
-0.289395
-0.289447
0.643721
-0.0184285
0.00414253
-0.0161598
-0.0269704
0.0108106
0.111763
-0.647528
0.722048
-0.0745197
0.298762
-0.60742
0.989466
-0.382046
-0.0282653
0.786272
1.04155
-1.18767
0.00605887
-0.628768
0.266961
-0.142435
-0.00355003
0.0261503
0.0431021
0.18228
-0.0664138
1.26952
0.210638
0.847667
0.0434737
-0.0548151
-0.0120664
0.00986777
-0.0977706
-0.0745511
-0.140965
-0.0227104
-0.0611284
0.419071
-0.49359
0.509181
-0.0901107
0.349513
0.159668
0.424335
-1.34143
0.158504
0.0400298
-0.485646
-0.157638
-0.445616
0.57777
0.0415814
-0.444688
0.28705
-0.097508
-0.34718
-0.351449
1.13947
0.129551
0.828741
-0.69919
0.568698
-0.00060627
-0.00025085
0.00411774
-0.781232
-0.456494
-0.590876
0.0218686
1.39533
0.711485
-0.758887
-0.00752763
0.00907001
-0.00154237
0.00280636
-0.010334
0.00200502
0.00428068
-0.0062857
-0.00599599
-0.0066079
0.0126039
-0.152225
0.264592
-0.112368
0.00566935
-0.00462068
-0.00104868
0.00723453
-0.00142475
-0.00580979
-0.00605254
0.00368711
0.00236544
-0.00508831
0.00481823
0.000270068
-0.0144133
0.0142437
0.000169592
0.0119396
-0.0026053
-0.00933431
0.00262746
0.00931215
-0.0172814
0.0058144
0.011467
0.00690036
-0.00257492
-0.00432544
0.00284256
0.0040578
-0.0132115
0.00467089
0.00854057
0.00565164
-0.0188631
-0.0027166
-0.00495196
0.00766855
-0.00790117
-0.00178184
0.00968301
0.00182943
0.0074595
-0.00928893
0.00531398
0.00227703
-0.00759104
0.00573784
-0.00891579
0.00317794
0.00836496
-0.00928153
0.000916562
0.00180825
0.00655671
-0.00778763
0.00543035
0.00235729
-0.00534061
-0.00244702
0.00205673
-0.00673492
0.00467818
-0.00164318
0.00963618
-0.00799299
-0.00228093
0.00412801
-0.00184708
-0.0031927
0.00195459
0.00123811
-0.00309361
-0.00294174
0.00603539
0.00456066
-0.00765419
-0.00302841
0.0101753
-0.00714687
-0.00715135
0.00237302
0.00477833
-0.00133233
-0.00581902
0.0025978
-0.00738357
0.00478577
0.0019962
0.00491035
-0.0069066
0.00734346
-0.00708333
-0.000260119
0.00316985
-0.00271158
-0.00045827
0.00342393
0.00324341
-0.00666734
0.0039072
-0.00550685
0.00159963
-0.00624538
0.00352878
0.00814846
0.000357903
-0.00850636
0.00445142
0.00369704
0.00340414
0.00771499
-0.0111191
0.00784703
-0.00947607
0.00162904
0.0109518
-0.00165449
-0.00929732
-0.00991154
0.000226488
0.00968498
-0.00937528
-0.000585138
0.00996038
-0.00459367
0.00665041
0.00763745
-0.0109076
0.00327013
-0.0131813
-0.00123197
-0.00698802
-0.00619329
-0.0244042
0.0200537
0.00435047
-0.0089829
-0.331615
0.340598
-0.00848994
0.00407616
0.00441377
-0.0054797
0.007249
-0.0017693
0.183646
-0.192629
-0.00482448
-0.00529504
0.0101195
-0.00905288
0.00151244
0.00754043
-0.00236653
-0.00668635
0.0192812
-0.00437399
-0.0149072
-0.0087002
0.0279813
0.00756594
-0.00245543
-0.00511051
0.00257586
0.00499008
-0.00689315
0.0106424
-0.0037493
0.00544333
-0.00815426
0.00271093
0.00852771
-0.00568515
-0.00118881
0.0114686
-0.0102798
0.00412831
-0.00594078
0.00181247
0.00971569
-0.0121616
0.00244594
0.00831716
-0.00831723
0.00241697
0.0155942
-0.0180112
-0.00995525
0.00531284
0.00464242
-0.00874017
0.0034764
0.00526377
0.00801016
-0.00801017
0.00783802
-0.00783801
0.000415525
0.00755005
-0.00796557
0.02461
-0.010083
-0.0145269
-0.00380729
-0.00594678
0.00975408
0.0058381
-0.00531842
-0.0005196
-0.0225238
0.00645301
0.0160708
0.010458
-0.0329818
0.00325838
0.00483052
-0.00808889
0.00562732
0.00142793
-0.00260355
-0.00559633
-0.00329768
0.0153801
-0.00400126
-0.00537585
0.00937711
0.00549415
-0.00342423
-0.00206991
-0.00523176
-0.00194548
0.00717725
-0.0112523
0.00458171
0.00667055
-0.0100773
0.00695258
0.00312471
-0.00465144
0.00686887
-0.00221742
-0.000346004
-0.00430544
0.0122405
-0.00998202
-0.00225851
0.00998872
0.00104444
-0.0110332
-0.00835584
-0.000988718
0.00934457
-0.00502009
-0.00333575
-0.00133052
-0.00651853
0.00784905
0.00160283
-0.00650836
0.00490554
-0.000257066
0.00620476
-0.00594771
-0.00122936
0.00635443
-0.00512508
-0.00399293
-0.00412731
0.00812024
0.00863717
-0.00410016
-0.004537
-0.0113543
-0.00177751
0.0131319
0.012536
-0.00676512
-0.00577091
0.0052567
0.006581
-0.0118377
-0.0075404
0.00819198
-0.000651579
-0.00646288
0.00779097
-0.00132809
-0.00719061
0.0107094
-0.00351879
0.00725092
-0.000891841
-0.00635908
0.00786954
-1.05677e-05
-0.00785897
0.00900826
-0.00240429
-0.00660397
0.00102412
-0.00657927
0.00555515
0.00276069
-0.00839873
0.00563802
0.00671111
-0.000950785
0.00636194
-0.00541115
-0.00722893
0.000476887
0.00675205
-0.0178633
0.0272328
-0.00936941
0.00136982
-0.00530123
0.00393141
0.00289111
0.00458317
-0.00747429
-0.00652334
-0.0043603
0.0108836
0.0033187
-0.00984204
0.00646991
7.34643e-05
-0.00654338
0.00939662
-0.00292672
0.0166323
0.00797776
0.00465433
0.00387268
-0.008527
0.0096765
-0.00939293
-0.000283575
0.00979354
-0.0097935
0.00537643
0.00327011
-0.00864654
-0.00564342
-0.00189703
0.00754045
0.0140867
0.0248447
-0.0389314
-0.0021783
0.00734335
-0.00516505
0.00097824
0.00600227
-0.00698051
0.0161324
-0.0133847
-0.00274768
-0.00530656
0.00184528
0.00346125
0.00949344
0.00297533
-0.0124688
-0.00263245
0.00637906
-0.00374661
0.00678126
0.00480386
-0.0115851
0.00128582
0.00581112
-0.00709694
-0.0030404
-0.00555719
0.00859758
0.00114429
0.00616414
-0.00730843
-0.028173
0.0449673
-0.0167943
0.0340919
-0.0622648
-0.00802644
0.0012784
0.00674805
-0.00452748
-0.00349896
-0.00901746
-0.00235458
0.0113721
0.00918038
-0.00538187
-0.00379852
-0.0116172
0.00645773
0.0051595
-0.00724003
0.0107129
-0.00347286
0.00170228
-0.00699915
0.00529687
-0.0036559
-0.00250844
0.00616434
-0.00771244
0.000826274
0.00688616
0.00147908
0.00186796
-0.00334704
-0.00373943
-0.00134889
-0.00227426
-0.00594208
0.00821634
0.00900924
-0.00773373
-0.00127551
0.00873325
-0.0100638
0.0100223
-0.00766359
0.00010374
0.0054239
-0.00552764
0.0062711
-0.00616735
-0.0252298
0.0321555
-0.00692562
-0.0189229
-0.00630691
0.00250648
0.00519628
-0.00770276
-0.00855387
0.00874271
-0.000188829
-0.00486526
-0.0036886
0.0108192
-0.00701974
-0.00379949
0.00635258
-0.0116932
0.00107778
-0.00823239
0.00715461
-0.00413087
0.00753501
0.00616765
-0.0102985
-0.00817622
-0.00488199
0.0130582
-0.00633498
-0.00380824
0.0101432
-0.0113818
0.00486324
-0.00778688
0.00379395
0.00209619
0.00375323
-0.00584942
0.00494468
-0.0059331
0.000988417
0.00352581
0.00141886
-0.000628728
0.00755644
-0.00692771
0.00551733
-0.00684966
0.0264004
0.00166885
-0.028069
0.0444726
-0.0180722
-0.0322063
-0.00641229
0.0093093
-0.00780902
-0.00150028
0.0062689
0.0077259
-0.0054074
-0.00231851
0.00167336
-0.00983322
0.00442582
0.000848
-0.0174571
0.00490319
0.00381368
-0.00871687
-0.00727073
0.00895751
-0.00168677
-0.00555117
-0.00214307
0.00769424
0.00336768
0.00673284
-0.0101005
0.00737631
-0.00555116
-0.00182517
0.00350815
0.0029824
-0.00649056
-0.0192382
-0.0302323
0.0494705
0.00660531
-0.0087836
-0.00541043
0.0112013
-0.00579085
-0.00817882
0.00197775
0.00620107
-0.000499467
-0.00869139
0.00919086
0.00925918
0.00110345
-0.0103626
0.0044318
0.00281822
-0.00725002
0.00724828
-0.00952252
0.00227425
0.00644519
0.00049911
-0.0069443
0.130468
-0.0472566
-0.0832111
-6.33991e-05
0.00907167
0.00780615
0.0114164
0.00417607
-0.0155924
-0.00580571
0.0114771
-0.00567138
0.00175693
0.00563032
-0.00738725
-0.00877892
0.00331473
0.00546418
-0.000575639
-0.00696476
-0.0083622
0.0180701
-0.00970792
-0.00325901
-0.0052129
0.00847191
-0.00231639
0.010215
-0.00789858
0.00487865
0.00786239
-0.012741
0.00840143
-0.00936195
0.00096052
0.0110536
-0.00842614
0.0107682
-0.00727689
-0.00349131
0.00266298
-0.00883112
0.00616815
-0.00360832
0.0062713
0.000711558
0.0063716
-0.00708316
0.0105778
-0.00569913
0.00516737
0.00446699
-0.00963436
0.0057705
0.00263094
-0.00392857
0.00969906
0.0104933
-0.00652707
0.00910293
0.00770039
-0.0051026
-0.00158456
0.00836582
-0.0107554
0.00772698
-0.0213638
0.004983
0.0163808
-0.0133899
-0.00797397
-0.0100503
0.00801991
0.00203036
-0.00958828
-0.000461979
0.000575582
0.00498535
-0.00556094
0.00196403
-0.00743801
0.00547397
0.0282978
0.0165685
-0.0448663
-0.0269715
-0.0148452
0.0013264
0.00196062
0.00363772
-0.00559834
0.00500148
0.000667872
-0.00418366
0.0125723
-0.00838867
0.00169303
-0.00736051
0.00566748
-0.0101135
0.00645434
0.00365912
-0.00727726
0.00241523
0.00486202
-0.00590388
0.00795704
-0.00205318
0.00413783
0.013533
-0.0176708
0.00978947
0.00593844
0.00759456
-0.00579178
0.0103514
-0.00455964
-0.00686149
-0.00321117
0.0100727
-0.00394771
-0.00411735
0.00806507
-0.00214488
-0.00577287
0.00791774
0.00199339
-0.00824022
0.00624682
0.00751485
-0.00991913
0.017596
-0.00633599
-0.01126
0.00956047
0.00558793
-0.0151484
0.00836884
-0.036033
0.0276641
0.00100064
-0.00900716
0.00800651
-0.00551466
0.0113429
-0.00582823
0.00944375
-0.00138843
-0.00805532
-0.00098336
-0.00772155
0.00870491
0.0100188
-0.00871972
-0.00129912
0.000643518
0.000913821
0.00282263
-0.00373644
0.014172
-0.00461155
0.00605294
0.00811907
0.0129844
0.00155658
-0.00653669
0.0049801
-0.00665408
0.00780337
-0.0011493
-0.00179429
-0.0048598
-0.000551231
-0.00835429
0.00890553
0.00960178
-0.00401385
-0.00175134
-0.0091339
0.0108852
-0.00956911
0.00781778
-0.00425071
0.00878775
-0.00453705
-0.00630878
-0.00305065
0.00935943
-0.0175116
0.012332
0.00517963
0.0105804
-0.0139763
0.00339582
-0.0380357
-0.0201878
0.0741119
0.0563558
0.0107182
-0.00268937
-0.00802882
0.0186702
-0.013002
0.00960482
0.00903036
-0.0186352
0.00969864
-0.00719216
0.00226966
0.00742898
-0.00597603
0.00824568
-0.00543451
-0.00648447
0.011919
-0.00405271
-0.00311571
0.00716841
-0.0372927
0.0212307
0.016062
0.0318206
-0.0296216
-0.00219909
-0.00177602
-0.00204752
0.00382354
-0.0354106
0.0235777
0.0118329
0.00523553
-0.0261549
0.0209194
0.000337
-0.0112783
0.0109413
0.00153012
-0.0120074
0.0104773
-0.0139496
0.00723689
0.00671266
-0.00392937
0.00789653
-0.00396717
-0.0055269
0.0107836
0.00700913
-0.00275976
0.00767412
-0.00491438
0.00261837
0.00479307
-0.00741142
-0.0067163
-0.00201791
0.00873421
0.00347124
-0.00621446
0.0027432
-0.00238993
0.0117901
-0.00940016
0.00700666
0.00636766
-0.0133743
-0.00229435
-0.00796839
0.0102627
0.004617
-0.00905104
0.00443403
0.00609621
-0.0049739
-0.00112232
-0.00180035
-0.00570791
0.00429586
-0.00600553
0.00574845
-0.00770287
0.00715163
-0.00760372
0.000716231
0.00688748
-0.00803459
0.00844255
-0.000407964
-0.00604119
-0.0036226
-0.00775917
-0.00995757
-0.00225227
-0.00688162
-0.00944289
-0.0014213
-0.00546032
0.00612916
-0.00763273
0.00150356
0.00809319
0.000891513
-0.0055122
0.00809645
-0.00808441
-1.20367e-05
0.00214575
0.0059507
-0.0118148
0.00259237
0.00922246
-0.00548493
-0.00576221
0.0112471
-0.0212832
0.011496
0.00978724
-0.0148654
-0.00641783
-0.00419905
0.00976406
-0.005565
0.00531457
0.00574752
-0.0110621
0.001809
-0.00836379
0.00655479
0.0278775
0.00727921
0.033113
0.140936
-0.238068
-0.190679
-0.00197033
-0.00764636
0.00961668
-0.00678776
0.00481742
-0.0056134
0.0107922
-0.00517883
-0.0018134
0.00358965
-0.00177625
0.0168203
-0.0136977
-0.00312253
0.00049572
-0.00644233
-0.00610307
-0.0363807
0.0424837
0.0353367
-0.0414397
0.0104678
-0.0204433
0.00997553
0.00492076
0.00526276
-0.0101835
0.0192882
-0.0117141
-0.00757412
-0.0102861
0.0172356
-0.00694957
-0.0126107
0.0266268
-0.0140161
0.0157322
0.0324178
-0.00579095
0.00418046
0.00374163
-0.00792209
0.0184316
0.0226681
0.0393985
-0.0215483
-0.0178502
0.00920335
-0.0114065
0.0022032
-0.00762037
0.0088822
-0.00126182
-0.0244397
-0.00171526
-0.0120227
-0.0183475
0.0166322
0.0169275
-0.0136473
-0.00328027
-0.0270011
-0.0342008
0.0612019
-0.0624394
0.0384117
0.0240276
0.0164937
5.14435e-05
-0.0165452
-0.00886576
0.00514677
0.00371895
0.00320339
-0.00470529
0.00150189
0.00255381
0.00291523
-0.00546905
0.00575721
0.00621256
-0.00110296
-0.0051096
0.00352225
-0.00475161
-0.00375502
0.00491849
-0.00861268
0.00369417
0.00832536
-0.00922327
0.00777854
0.00144474
-0.00600249
-0.00322077
-0.00261091
-0.00638491
0.00899581
0.00111614
0.0075851
-0.00870123
0.00904872
-0.00793258
-0.00150821
0.0102415
0.00851406
0.000448932
0.00546344
-0.00591237
-0.00472894
0.00517785
0.0121367
0.00174742
-0.0138842
-0.00343652
-0.0144268
-0.0126794
-0.0013753
-0.00694402
0.00831932
0.00556866
-0.00694397
-0.00155234
-0.00539168
0.0015136
-0.0105394
0.00902582
0.00426971
0.0047259
-0.00899561
0.00933088
-0.00471389
-0.00402773
0.0046191
-0.00059138
0.00923039
-0.00422665
-0.00500373
-0.00734979
0.0073498
-0.0143606
-0.0239283
0.0382888
-0.00895328
0.00791813
0.00103513
-0.00487351
-0.00191426
0.0260024
0.00367567
-0.0296781
0.0133676
0.0126348
-0.0217279
0.0254036
0.00594418
-0.00359099
-0.00235319
-0.00127379
-0.0051662
0.00643999
0.00467039
-0.00741583
-0.00383644
0.0106672
0.00626034
-0.0012474
0.0119146
-0.00891132
0.0151717
0.0106896
0.000414313
-0.0111039
0.0054184
0.0052712
-0.0138584
0.0142728
-0.00525842
0.00695145
0.00516512
0.00453603
-0.00970114
-0.00491216
-0.00414224
0.00904543
-0.00172556
0.00425119
-0.00252562
0.00341073
-0.00648876
0.00307803
0.0151888
0.00188702
-0.0170758
0.00381024
-0.0112865
0.0074763
-0.00329041
-0.00409043
0.00738083
-0.00582228
0.00583415
-1.18694e-05
-0.0483811
0.0677942
-0.019413
0.00557855
-0.00938584
0.0083636
-0.00285751
-0.00550608
0.00150212
0.0448264
-0.0387038
-0.00612254
0.00395856
0.00233915
-0.00629772
0.00546742
-0.00150886
0.00663577
-0.00429664
0.00877745
-0.0221673
-0.0448546
0.0265021
0.0183524
0.0378711
-0.0147008
-0.0231703
-0.0205807
0.0235594
-0.0029787
0.0199745
-9.23859e-05
-0.0198821
0.00897559
0.00526811
0.0105057
-0.00724348
0.0125116
-0.0266134
0.0122109
0.0144025
0.00809114
-0.00913863
0.00104749
0.00289273
0.00519841
-0.00568172
-0.00373954
0.00942127
0.00520352
0.00563654
-0.00956511
-0.00227401
-0.00505833
0.00733234
-0.00884597
0.0043322
0.00451377
-0.01112
0.00215296
-0.00943935
0.00728639
-0.00845294
0.00606877
0.00238418
-0.00629998
0.004028
-0.00649698
0.00246901
0.00235243
-0.00983077
0.00747833
-0.00347418
0.00347415
-0.000850464
0.00719609
-0.00634562
0.00202582
0.00561151
-0.00763733
0.0192732
0.0201253
0.0017315
0.00863539
-0.0103669
-0.00329718
0.00329718
0.00477766
0.00365839
-0.00217591
0.00695356
-0.00889883
0.0104124
0.000801489
-0.00690692
0.00610542
0.00689122
-0.00118627
-0.00570496
0.00769271
0.00324807
0.00335479
-0.00660286
-0.00281369
0.00653564
-0.00372195
-0.00573934
0.00646752
-0.0007282
0.00625492
0.000445978
-0.00670093
-0.0060342
-0.00564795
0.0116821
-0.0103945
0.00200776
0.00433272
-0.00634048
-0.00821649
0.0206406
-0.0124241
0.00159891
0.00627158
-0.00787049
0.00773263
-0.00613373
0.00257915
-0.00257919
0.0072727
0.00311228
-0.010385
0.0031369
0.00413581
-0.00407996
0.00719223
0.00937854
-0.00723279
0.00180268
0.0074565
0.00944012
0.00695704
0.00899843
-0.00608986
-0.00290856
0.00106732
-0.00860565
0.00753833
0.00827937
-0.00721205
-0.00189607
0.00759229
-0.00569623
0.00429405
-0.00619012
0.00463582
0.00144653
-0.00608235
0.0183426
-0.0160444
-0.00229822
-0.00805653
0.0197614
-0.0117049
0.0282017
-0.0112554
-0.0169463
0.0265273
0.00167434
0.0211624
-0.00843941
0.00193753
-0.000101869
0.00707643
-0.00697457
0.00626784
-0.00617983
-8.80178e-05
0.0109487
-0.00782819
0.0025304
-0.0107066
0.0134791
0.00246981
-0.00246982
0.0055628
-0.0062668
0.000704009
-0.00652761
0.00813044
0.00774939
-0.0101159
0.0225991
-0.00851242
0.00707894
-0.0240253
-0.0325377
0.00856858
-0.00215394
-0.00641465
0.00259255
-0.0104928
-4.94577e-05
0.0105422
-0.0108038
0.0113391
-0.000535384
0.0317829
0.00121123
-0.00520515
0.00520513
-0.0060624
0.0057164
-0.00619267
0.00524188
-0.0327854
-0.00377364
0.0365589
-0.0112903
-0.0214951
0.0329313
-0.036705
0.00558436
-0.00558396
-0.0180255
-0.008436
0.0264615
-0.0252309
0.0162503
0.00898061
0.00174144
-0.00174145
0.00319293
-0.00319275
0.00535098
-0.000790254
0.00309817
0.00316254
-0.00626071
0.00519436
0.00453236
0.00484176
0.00239641
-0.00723818
0.00135371
0.00563845
-0.00699216
0.00135885
0.0065169
-0.00787576
-0.0387087
0.0206832
0.00337745
0.00366772
-0.00704517
0.00708882
-0.00804469
0.000955867
-0.00430727
0.00753528
-0.00322802
0.00278154
0.00668335
-0.0061464
-0.000536956
0.00262775
0.00405559
-0.00763785
-8.52568e-06
-0.00214054
0.00214085
-0.0225689
0.0412052
-0.0186363
-0.0351136
0.0126895
0.0224241
-0.0323158
-0.00279789
0.0393472
-0.0266577
0.00632286
-0.00174114
0.00109109
-0.00741327
-0.00431713
0.0117304
-0.0115969
0.00848274
-0.0127999
0.0210256
-0.0146958
-0.00632972
-0.000530005
-0.0321657
0.0174699
0.00811666
-0.00460851
-0.00255766
0.00255765
0.00819096
-0.0154344
-0.00973188
-0.00261294
0.0123448
0.0260714
-0.0332608
0.00718941
-0.0110507
0.0371222
-0.00254905
0.00848577
-0.00593673
-0.0097349
0.00718586
-0.00449885
0.00828408
-0.00378527
0.00395692
-0.00683748
0.00288053
-0.012203
0.01254
-0.00716956
0.00102316
-0.00287551
-0.00668928
0.00149565
0.0069911
-0.00848675
0.00706594
-0.0055703
-0.0162758
0.01741
-0.00113417
0.00604312
-0.0155621
0.00951901
0.00642807
-0.00928558
-0.00211544
0.00211554
0.00122799
-0.001228
0.0162713
-0.0143109
-0.00196042
0.0087702
-0.00637198
-0.00239826
0.00933366
-0.000563475
-0.00756857
0.00162179
-0.00350691
-0.00406165
-0.00800615
0.00471574
-0.00414185
-0.00697812
-0.00900712
-0.00033919
-0.00495945
0.00529862
-0.037169
0.0157411
0.0214278
-0.0275424
-0.0078682
0.00128314
-0.00718704
0.00731115
-0.00105625
-0.00332863
-0.00538799
0.00871662
0.00493955
0.00943459
-0.0143741
0.00722419
0.00319861
-0.0104228
0.00412189
-0.00600747
0.00188558
-0.000319185
0.00444108
-0.00278693
0.00707262
0.00678376
0.000234462
0.0146152
-0.0148496
-0.0160413
-0.00195728
0.00195726
0.000247687
-0.00220498
-0.013902
0.00756597
-0.0056718
0.0063407
-0.000668897
-0.000948171
-0.00472363
0.00187759
-0.0018776
-0.00045002
-0.00521911
0.00566913
-0.00462531
0.00658593
0.00704049
-0.00807057
0.00103007
-0.0302789