/*--------------------------------*- C++ -*----------------------------------*\
  =========                 |
  \\      /  F ield         | OpenFOAM: The Open Source CFD Toolbox
   \\    /   O peration     | Website:  https://openfoam.org
    \\  /    A nd           | Version:  6
     \\/     M anipulation  |
\*---------------------------------------------------------------------------*/
FoamFile
{
    version     2.0;
    format      ascii;
    class       volVectorField;
    location    "800";
    object      U;
}
// * * * * * * * * * * * * * * * * * * * * * * * * * * * * * * * * * * * * * //

dimensions      [0 1 -1 0 0 0 0];

internalField   nonuniform List<vector> 
29874
(
(7.53241 0.0620959 1.08535e-16)
(5.39391 0.0280163 -1.00603e-16)
(5.4245 -0.121057 1.99773e-16)
(7.11061 -0.079647 -1.18173e-16)
(7.81226 -0.120049 0)
(7.43218 0.00410137 -9.67335e-17)
(4.77608 0.0938045 8.41053e-18)
(7.12407 0.0173418 2.24933e-18)
(7.44916 -0.00382402 -1.33872e-17)
(7.19176 0.211843 -1.64064e-17)
(7.20899 -0.116085 0)
(7.23894 0.103056 -3.54497e-17)
(4.44953 -0.0538865 9.19246e-17)
(8.27532 0.0482619 0)
(6.72064 0.202887 1.06384e-16)
(6.60347 0.136532 0)
(4.25765 -0.0197984 0)
(7.80126 0.210777 -1.38999e-16)
(4.96179 -0.0408117 -1.43933e-16)
(7.99519 -0.0692283 -3.33001e-18)
(7.11891 -0.0228805 3.48892e-17)
(7.07129 -0.0255489 9.09306e-18)
(7.03386 0.0611994 -9.65912e-17)
(7.5254 0.0381259 0)
(5.75517 0.294484 0)
(7.76988 -0.0108897 -2.53753e-17)
(7.97416 -0.0458328 -9.02103e-17)
(5.06421 0.120623 1.26229e-16)
(5.32605 0.122443 1.73583e-17)
(4.94664 -0.118926 4.80465e-17)
(8.07687 -0.0996826 -2.83708e-17)
(5.35225 -0.0980945 -2.73891e-16)
(7.85746 0.0524094 0)
(5.18496 -0.0345241 -8.89961e-17)
(7.38728 0.134049 3.46587e-17)
(5.47781 0.110005 -1.93773e-17)
(7.0384 -0.000443611 0)
(7.28438 0.314949 -6.83067e-18)
(7.50676 -0.105769 -6.74318e-17)
(5.34706 0.0224468 0)
(7.00039 0.0105149 -4.03713e-17)
(7.02983 -0.0190836 8.239e-17)
(7.30937 0.00868122 0)
(5.62823 0.0460723 -1.10122e-17)
(8.03605 -0.140969 8.36826e-17)
(7.42839 0.0453095 0)
(4.74819 -0.149889 0)
(8.48777 0.039505 0)
(7.25927 -0.0607255 4.16617e-18)
(7.17302 -0.113894 -6.04211e-17)
(4.4881 0.141249 -8.98039e-17)
(7.88098 -0.101445 0)
(6.77519 -0.00185232 -4.50444e-17)
(6.60504 0.0688614 3.87465e-17)
(7.67452 0.155563 -1.85513e-17)
(7.72002 -0.011378 5.24765e-17)
(4.68872 -0.0788035 0)
(8.14845 0.033604 0)
(7.12472 -0.0629911 0)
(7.04664 0.0846279 -8.39491e-18)
(7.27151 -0.129168 1.19644e-18)
(7.23633 0.0162375 -7.50389e-17)
(7.22193 -0.232178 -1.21172e-18)
(7.4847 0.0151764 0)
(5.81264 0.0538434 -4.40042e-17)
(7.46121 0.032699 -3.85952e-17)
(7.74488 0.141531 -2.11416e-20)
(7.59853 0.00540318 7.78577e-17)
(7.64106 -0.0937308 4.22794e-17)
(7.49445 -0.0811909 4.09677e-17)
(8.25122 -0.138565 3.76797e-17)
(7.61438 0.0179492 5.02993e-17)
(7.53143 0.10413 -3.2505e-16)
(5.6533 -0.132966 4.03051e-16)
(7.03591 -0.130144 3.82824e-17)
(8.07085 0.120429 0)
(7.80917 -0.110478 -1.67753e-17)
(8.00905 -0.100131 1.691e-17)
(4.99381 0.111118 6.53352e-16)
(7.34892 0.0961841 -1.84988e-16)
(5.39688 -0.0940232 -9.91563e-17)
(7.11238 -0.153285 1.04783e-18)
(6.9672 0.159224 0)
(7.4401 0.199752 -3.81471e-17)
(4.57696 -0.354811 0)
(5.04303 -0.213359 -4.09148e-17)
(7.364 0.0105602 -1.2889e-19)
(7.0366 0.0434816 1.92073e-17)
(7.94888 -0.109971 9.67075e-17)
(7.55299 -0.0692985 5.15906e-17)
(3.77658 -0.683094 -4.45998e-18)
(7.00423 0.0801935 4.80201e-17)
(6.95546 0.135243 -2.77432e-17)
(7.46202 -0.0355954 2.76964e-17)
(7.20299 -0.127224 0)
(6.68007 0.10298 0)
(7.0951 -0.230601 -2.09859e-17)
(4.60046 0.0101549 8.93035e-18)
(3.45418 -0.54938 -2.18218e-17)
(6.48885 -0.0635321 1.18254e-17)
(7.52564 0.0516905 -3.30326e-18)
(7.02019 0.0963912 1.22512e-17)
(6.99016 0.0924136 0)
(7.34827 0.0845618 -8.30751e-17)
(7.09742 0.0921951 -6.22169e-17)
(3.49457 -0.379324 3.99977e-17)
(3.8987 -0.497914 -3.04386e-17)
(7.50072 0.00554636 6.39046e-18)
(7.58876 0.0119317 0)
(7.24715 -0.132211 -9.64491e-18)
(3.84653 0.150336 -2.73544e-17)
(7.95162 -0.175468 8.55951e-17)
(8.01125 -0.177175 -9.16609e-17)
(6.9675 0.12307 0)
(6.97374 0.136445 0)
(6.98321 0.105177 -5.5293e-17)
(6.87247 -0.310038 8.57688e-18)
(7.2268 -0.185694 1.07009e-16)
(0.510341 0.0938185 -5.87485e-17)
(7.04095 0.086974 2.48257e-17)
(6.97263 0.13402 4.24907e-17)
(8.25465 -0.203886 -1.27368e-16)
(7.19824 -0.105399 -8.94133e-20)
(7.14479 -0.139648 3.84187e-18)
(7.25134 -0.134002 6.53572e-18)
(6.64293 0.164778 -4.52274e-18)
(7.47804 -0.146504 0)
(7.20395 0.232602 -2.01891e-17)
(7.01927 0.112529 -4.94289e-17)
(6.54923 -0.276319 4.24723e-17)
(6.99952 0.00712718 0)
(6.74344 -0.267061 3.03757e-17)
(7.13034 -0.123873 -5.33179e-17)
(7.07849 0.0961606 9.89962e-17)
(7.28813 0.118204 4.17316e-17)
(7.10939 0.0578831 -3.34333e-17)
(7.25289 0.119012 7.59186e-17)
(7.04527 0.00603376 -9.70088e-18)
(7.35696 0.279682 7.93528e-19)
(7.1044 -0.161682 6.01116e-17)
(7.70528 -0.265506 -7.29222e-18)
(7.76323 -0.0409447 0)
(7.0197 -0.195079 -1.33987e-17)
(7.47207 0.266452 -2.35052e-17)
(7.20979 -0.055859 -5.52781e-17)
(7.14557 0.189052 -8.27065e-18)
(7.35966 0.0333704 3.75651e-17)
(7.32073 0.0719867 5.60143e-17)
(7.0035 0.00665377 -3.12205e-18)
(6.63281 0.122523 -5.08994e-18)
(7.80229 0.0881198 3.40391e-17)
(7.8797 -0.116424 8.79629e-18)
(6.48436 0.196344 0)
(6.93515 -0.0960861 1.36208e-17)
(7.38118 -0.0760594 2.43191e-17)
(7.02393 0.0612323 3.81908e-17)
(7.06271 -0.0131665 2.30557e-17)
(7.70571 -0.193036 -3.74494e-17)
(7.93912 -0.100474 3.91153e-18)
(7.96068 -0.136845 0)
(7.71232 -0.143166 -7.12982e-17)
(7.22043 0.100764 1.95299e-16)
(6.89258 0.150286 -6.44244e-16)
(7.65351 -0.173083 0)
(7.76282 -0.178566 0)
(7.74856 -0.1586 7.28047e-18)
(7.6866 -0.170196 0)
(7.1664 -0.0713004 0)
(7.05539 -0.0165232 -5.93399e-17)
(7.49791 -0.185465 2.21889e-17)
(7.7539 -0.111596 0)
(7.67388 -0.160503 0)
(7.58978 -0.123278 -1.24472e-17)
(4.36071 -0.00380171 -3.73311e-17)
(4.04194 0.12128 7.34008e-18)
(7.49445 -0.142093 0)
(7.30423 -0.168173 1.84639e-17)
(1.02579 -0.0886728 -5.77458e-17)
(6.92956 0.0273261 -1.60693e-16)
(6.77788 -0.0203339 8.20915e-17)
(1.03873 -0.0658149 0)
(1.00769 0.0172879 0)
(5.0057 -0.0786114 -2.42334e-17)
(6.91477 0.120594 -3.37275e-17)
(6.56919 -0.0324258 1.53722e-18)
(8.25625 0.062293 -3.78528e-17)
(7.03008 0.133756 -1.11544e-17)
(7.01963 0.115242 -8.8531e-19)
(7.03553 0.0830363 4.94228e-18)
(6.98265 0.128217 2.07594e-17)
(6.98514 0.1011 1.52437e-17)
(8.34969 -0.12479 1.06596e-16)
(6.88767 -0.126641 8.02349e-17)
(6.70514 -0.213879 -4.24558e-17)
(5.18936 0.0273486 -4.99182e-17)
(7.07391 0.0718979 2.31745e-17)
(7.03425 0.0992725 4.91847e-17)
(7.61775 0.162177 0)
(1.11623 0.00750302 8.40041e-17)
(1.41698 0.00657135 0)
(7.74286 0.199296 7.57513e-18)
(8.1076 -0.0710103 0)
(7.62747 0.448592 -1.51378e-17)
(7.59317 0.281204 -1.45339e-16)
(6.96786 0.093552 0)
(6.78599 0.118405 4.88553e-17)
(6.89032 0.0946406 7.22205e-17)
(7.38674 0.0860564 3.40482e-16)
(7.08319 -0.182438 -5.9839e-17)
(6.8763 -0.250759 -3.24832e-17)
(7.11575 -0.00802498 4.46487e-17)
(7.30582 0.0301857 -2.77778e-17)
(6.35396 -0.132379 -6.62585e-17)
(6.79633 0.0941469 -1.44511e-16)
(7.2773 0.22042 3.08426e-17)
(7.16913 -0.21614 -5.37266e-17)
(7.25785 -0.188611 -5.3791e-18)
(7.19805 -0.160725 -2.7639e-17)
(7.27601 -0.136863 1.74085e-17)
(7.45237 -0.142792 0)
(7.68149 -0.000668466 -1.01483e-16)
(8.31078 -0.0649447 -3.16832e-17)
(6.89056 0.0119373 5.47077e-17)
(7.41795 -0.0541933 -4.14092e-18)
(7.00099 0.0548498 -6.33014e-17)
(7.31858 0.0543424 0)
(7.60292 -0.015338 6.68706e-18)
(7.45419 -0.122374 -6.63631e-18)
(7.80179 0.169105 -2.90384e-17)
(6.98918 0.236543 -1.90746e-17)
(7.00358 0.0234431 0)
(7.0014 0.0454787 5.16831e-17)
(7.39201 -0.0854133 -1.17987e-17)
(7.25775 -0.05966 1.09662e-17)
(6.78983 -0.0913203 4.30793e-17)
(6.91868 -0.0831677 0)
(6.48676 -0.239759 0)
(7.76442 -0.113772 -2.08235e-17)
(7.59211 -0.131802 8.17305e-18)
(7.82242 0.0768699 -7.58778e-18)
(8.01951 -0.0788062 5.86066e-17)
(2.47013 1.30254 -7.15031e-18)
(2.92094 -0.463749 7.55309e-18)
(6.07683 2.48857 -2.42248e-18)
(6.19625 2.53768 0)
(2.95343 -1.36454 1.34993e-17)
(2.87646 -1.34522 1.41145e-17)
(7.45803 -4.18038 4.56129e-18)
(6.61548 1.1633 1.56186e-17)
(6.94746 -1.0716 1.60998e-19)
(4.21068 -0.73123 -2.20104e-17)
(6.60166 1.68458 1.02155e-18)
(4.34659 -1.20496 -1.69543e-17)
(4.63954 -0.668151 0)
(7.08942 -0.319343 -7.5575e-18)
(3.18027 -0.448391 -2.28517e-17)
(4.81353 -1.43793 -1.07509e-18)
(0.714617 0.358733 6.34604e-17)
(7.00106 -1.02765 1.99243e-19)
(4.71 0.373614 2.13048e-18)
(6.12467 -3.74126 9.12508e-19)
(4.59947 -0.320332 -2.99569e-19)
(4.81428 -1.53054 0)
(6.69139 -3.4756 1.3886e-18)
(6.88763 -3.65587 5.60105e-18)
(6.6418 -4.19155 1.94412e-18)
(6.73505 -4.18847 -1.22305e-18)
(6.25162 2.2609 -1.84823e-18)
(6.19317 2.36651 2.01038e-18)
(0.73752 -0.384606 0)
(3.10035 -1.33523 2.78274e-18)
(3.01398 -1.28161 -1.95089e-17)
(3.53667 -0.621831 2.16223e-17)
(5.48608 -1.54401 -1.1244e-17)
(6.59948 2.8103 2.88637e-19)
(6.06316 2.80514 1.09149e-19)
(5.67687 -4.15389 1.22148e-18)
(1.43379 0.547591 -2.08243e-17)
(6.03614 2.43279 -3.25795e-18)
(6.3401 -1.75612 0)
(6.40225 -1.62844 1.39389e-20)
(6.85968 1.80048 -3.32308e-19)
(6.78235 1.8009 0)
(6.45337 2.02323 -2.41428e-18)
(6.5025 2.06683 0)
(6.22373 1.48292 0)
(6.68358 1.89332 -1.24885e-18)
(6.74497 1.88938 1.08194e-18)
(3.19702 -0.577899 3.16649e-17)
(3.30743 -0.623569 3.10448e-17)
(5.88589 2.74157 -2.2755e-18)
(6.20789 2.53591 0)
(6.18605 2.54248 0)
(7.31063 -3.42307 4.60316e-18)
(7.31828 -3.86592 7.22761e-18)
(4.89691 -0.490747 0)
(4.86538 -0.14328 0)
(5.89418 -3.99816 1.2633e-18)
(4.15809 -0.986625 4.28959e-17)
(3.62789 -0.837249 -1.26615e-17)
(3.0777 -0.569514 -4.03633e-17)
(4.34092 -2.36506 2.41975e-18)
(6.27618 2.18668 0)
(4.23554 -1.66013 -2.94155e-18)
(6.16784 2.52864 3.96245e-19)
(6.1961 2.42042 -4.99591e-19)
(3.15481 -1.24193 9.98766e-18)
(6.78766 -0.403138 0)
(5.74934 -3.97555 0)
(2.52685 -0.00701318 0)
(6.59018 -4.59396 1.33216e-18)
(6.61054 -4.55206 -6.53756e-19)
(5.75635 -4.04118 0)
(5.86747 -4.09509 -2.33348e-18)
(5.65456 -4.05996 1.16696e-18)
(4.73733 -0.267411 9.8648e-19)
(4.79537 -0.432271 2.27642e-21)
(6.54874 -3.07996 -1.88825e-19)
(6.18463 2.26222 3.19388e-19)
(6.15492 2.32763 4.88383e-18)
(6.83101 -3.87159 2.83667e-18)
(6.83348 -4.73918 0)
(3.08749 -1.47871 -7.59152e-18)
(3.02699 -0.298492 0)
(6.10531 2.32695 -5.24943e-18)
(6.09037 2.36398 0)
(6.07416 2.26866 0)
(7.07452 0.257531 -1.93096e-17)
(4.86197 -0.234545 -2.61308e-18)
(4.89067 -0.403023 -2.82451e-18)
(6.58317 0.516193 -7.92009e-17)
(6.69404 0.396068 -4.99396e-17)
(4.36729 1.04147 1.97533e-18)
(4.26517 1.15944 -2.5253e-18)
(6.68445 -4.55272 0)
(6.24932 -4.0666 1.39885e-19)
(6.23695 2.46317 0)
(6.30263 2.42678 0)
(6.27475 2.4031 0)
(6.27119 2.4784 0)
(2.99801 -1.17138 -5.57481e-18)
(5.51028 -4.0096 0)
(2.98233 -0.474792 1.01563e-17)
(3.06652 -0.469632 -6.50838e-18)
(3.03331 -0.394931 -1.80649e-17)
(3.02013 -0.516425 -5.31425e-18)
(6.38704 2.33315 5.27195e-19)
(6.34428 2.30319 3.83795e-18)
(6.75274 -4.64388 1.41666e-18)
(6.18758 2.49003 3.65569e-19)
(6.63118 1.5732 9.43328e-18)
(7.48392 -0.457116 0)
(6.47251 -2.52895 1.95534e-17)
(7.08431 -3.11618 4.11454e-18)
(5.85329 -2.06882 0)
(7.06048 -0.351894 3.13014e-18)
(3.20062 -0.324159 0)
(3.21726 -0.100005 0)
(5.6945 -0.795308 0)
(0.680387 -0.212889 6.10471e-17)
(7.02562 -3.10106 -6.80009e-19)
(2.77571 -1.86909 -1.1512e-18)
(7.182 -3.00303 0)
(3.00881 -0.623378 4.69523e-18)
(3.0026 -0.821107 1.01023e-17)
(6.21628 2.51779 -7.74743e-20)
(6.20645 2.50068 -1.35485e-20)
(6.24252 2.50914 1.11412e-19)
(6.16282 0.340374 -8.08005e-17)
(3.40946 -0.14635 3.10421e-17)
(3.28103 -0.303068 2.2309e-18)
(3.42679 -0.306392 -3.44935e-17)
(3.2963 -0.138265 -2.34634e-18)
(6.98892 0.175963 2.07108e-17)
(7.04852 -0.256207 -3.2033e-18)
(3.44646 -0.0766509 -2.50322e-17)
(3.72952 0.0713849 -5.9799e-18)
(3.69756 -0.099683 1.1014e-18)
(3.59226 0.64458 0)
(3.80023 0.387712 2.66996e-17)
(2.92679 -1.15941 0)
(2.91118 -1.06526 6.59856e-21)
(6.59426 -0.587496 7.91184e-18)
(6.64774 -0.370864 3.33721e-18)
(6.18141 2.40401 -5.23107e-19)
(6.20864 2.45146 5.51506e-19)
(3.0967 -0.237567 2.14196e-17)
(6.3481 2.43558 0)
(6.38223 2.3917 0)
(6.36144 2.51073 0)
(7.06796 -3.92059 6.22867e-18)
(7.23351 -3.97875 0)
(2.83628 -0.445579 -6.46984e-18)
(7.22187 -3.28257 -6.59065e-18)
(7.00149 -3.52741 6.37841e-18)
(6.67325 -4.65569 0)
(6.62279 -4.60755 -1.40477e-18)
(6.69857 -4.62194 5.85631e-20)
(6.60332 -4.64235 0)
(6.71351 0.289921 0)
(6.71968 -4.0412 1.01974e-19)
(6.76505 -4.13268 1.3196e-18)
(6.8205 -3.97645 -1.32379e-18)
(6.4132 -0.435095 -4.19109e-17)
(6.43178 -0.55954 5.6871e-17)
(6.50285 -0.375381 -6.38112e-17)
(3.05645 -0.248847 5.62087e-18)
(3.14491 -0.151764 -5.80608e-18)
(3.07575 -0.149121 -2.92985e-18)
(3.13599 -0.255248 2.81766e-18)
(4.32119 -0.401087 -3.22665e-17)
(4.09477 -0.512249 1.12353e-18)
(4.21973 -0.531263 0)
(4.25639 -0.300621 1.96093e-17)
(6.83436 0.583306 1.89481e-17)
(3.75377 -3.3173 3.40308e-18)
(4.03481 -3.16313 1.42758e-18)
(3.2967 -1.79541 6.14948e-20)
(3.15047 -1.83192 -5.34705e-18)
(3.04207 -0.12491 -5.17435e-18)
(3.047 -0.0075133 5.54504e-18)
(2.9514 -0.146868 0)
(4.06706 0.512498 0)
(3.79687 0.808226 9.36276e-18)
(4.26387 -0.219188 0)
(4.05565 -0.00711148 0)
(3.98145 -0.198814 0)
(4.28037 -0.0882125 0)
(6.37104 -1.41827 4.07274e-20)
(6.37645 -1.49157 0)
(6.49339 -3.94564 1.16161e-18)
(6.50435 -4.05841 0)
(6.60474 -3.99928 1.81696e-19)
(6.42033 -3.94439 -3.19827e-18)
(4.18827 1.20867 0)
(6.61324 -3.56499 -5.03508e-18)
(6.31428 -3.7088 0)
(4.06396 1.62677 -1.26182e-18)
(4.30978 1.26829 0)
(3.64784 -0.364714 -2.48719e-17)
(3.88772 -0.213747 0)
(3.73315 -0.170059 0)
(3.86449 -0.364322 3.07784e-17)
(3.33842 -1.12409 4.28923e-17)
(3.28045 -1.24882 -1.53983e-17)
(6.92452 0.143248 -5.00501e-18)
(6.55917 -0.0662868 9.57285e-17)
(6.51496 -0.176743 0)
(6.47011 -0.132038 9.53232e-17)
(6.59862 -0.15394 0)
(3.28142 -1.01925 -1.85928e-17)
(3.35753 -0.882692 0)
(3.1613 -0.980068 0)
(4.38573 -1.08586 -2.6196e-17)
(4.55671 -0.716842 -1.17302e-17)
(4.37134 -0.814382 1.21249e-17)
(6.4372 -4.1851 9.48239e-19)
(6.49112 -4.11715 1.53922e-18)
(6.55016 -4.15712 -9.6124e-19)
(6.39814 -4.10398 -2.00698e-18)
(7.03661 -3.84652 -7.95082e-18)
(6.94329 -3.71174 -4.98657e-18)
(7.08663 -3.7436 1.86157e-18)
(6.91262 -3.82376 -3.50029e-18)
(4.78976 -1.01629 0)
(4.78938 -1.12329 0)
(4.7189 -1.01473 -2.80382e-19)
(6.0574 2.86356 4.50236e-20)
(7.34408 -0.185891 -3.05117e-17)
(7.16368 -0.218561 3.5157e-18)
(7.23696 -0.20805 1.89808e-17)
(7.27157 -0.188477 -1.28472e-17)
(6.31576 3.00384 -8.37521e-20)
(5.19263 -0.140184 5.3399e-17)
(6.06638 2.43583 -1.70938e-18)
(6.07916 2.46352 -7.99472e-19)
(6.10046 2.40187 1.42114e-18)
(3.34008 -1.37427 0)
(3.26175 -1.52431 0)
(3.52298 -1.39419 2.68809e-17)
(5.54111 -1.20719 6.80556e-18)
(3.46932 0.396853 0)
(3.64427 0.399353 2.51112e-19)
(3.57299 0.317827 0)
(3.54621 0.530723 -1.11176e-17)
(6.9341 0.445286 2.4329e-17)
(3.01232 -0.90448 2.94244e-18)
(2.92071 -1.01423 -6.62399e-18)
(2.92522 -0.944038 3.49301e-18)
(3.01263 -0.998274 0)
(8.03833 0.203606 -6.73775e-17)
(0.622326 -0.103054 1.16734e-16)
(7.77756 -0.353827 4.61871e-17)
(8.08292 -0.0201977 0)
(1.45418 -0.129719 -4.41511e-17)
(7.08986 0.297918 -1.69642e-17)
(4.67452 0.0637963 -8.44461e-17)
(6.99745 0.0219607 3.79415e-17)
(7.00723 0.111508 -2.46961e-17)
(7.00653 0.085207 -4.93649e-17)
(7.9751 -0.233291 0)
(3.30465 -0.470158 -3.42865e-18)
(6.74855 0.292237 0)
(6.79428 0.244247 1.89466e-17)
(6.03706 -0.092325 0)
(6.28888 0.198318 -9.41896e-17)
(6.17718 0.245613 5.00129e-17)
(6.49606 0.0773619 2.65446e-17)
(6.4219 0.121617 0)
(2.64655 -0.266548 7.58268e-18)
(6.91463 0.182298 -4.5104e-17)
(6.89186 0.216972 -4.95416e-17)
(5.3511 -0.166149 -3.31042e-17)
(6.9553 0.305709 1.86688e-17)
(6.94406 0.359743 1.24901e-17)
(2.57431 0.434802 3.30801e-17)
(7.00946 0.0780399 4.36489e-17)
(7.71382 0.347147 -1.9728e-17)
(0.506886 0.149955 -7.08724e-17)
(7.00279 0.148739 -1.33061e-17)
(6.96813 0.237246 3.02468e-17)
(7.19689 0.290657 0)
(5.38337 -0.332004 -6.58847e-17)
(7.40773 -0.213858 9.34391e-17)
(2.90616 -0.319406 3.63767e-18)
(3.00171 -0.214188 -2.03398e-17)
(6.8838 0.906495 1.282e-17)
(7.01202 0.122504 3.26046e-17)
(7.33262 -0.261226 -2.47712e-17)
(7.39003 -0.278423 -8.67974e-17)
(7.34065 -0.335364 2.84897e-17)
(7.62594 -0.20337 4.18853e-17)
(6.55918 -0.414909 7.3638e-18)
(6.53706 -0.521007 -1.01604e-17)
(7.11494 -0.18339 8.81616e-19)
(7.09927 -0.223635 2.47305e-17)
(7.05868 0.214329 -9.99194e-18)
(6.34229 -0.300188 -7.20844e-17)
(6.70193 -0.428392 0)
(6.67332 -0.548702 0)
(6.95997 -0.156481 -4.85263e-18)
(6.85401 -0.161758 0)
(0.477972 0.138089 0)
(2.7273 0.388494 1.88108e-17)
(7.56276 -0.153223 3.25552e-17)
(7.64618 -0.12648 5.82902e-18)
(7.26329 0.410466 1.89249e-19)
(7.06772 -0.224553 0)
(7.13139 -0.193304 0)
(6.68686 0.234128 -1.78995e-17)
(7.59848 -0.394827 0)
(7.00217 0.071253 -2.31914e-17)
(6.99633 0.0887194 8.3563e-17)
(7.01474 0.182345 -2.76735e-18)
(7.08123 -2.91291 1.4843e-17)
(6.36111 -2.26904 -1.19172e-17)
(6.33709 -2.14746 1.0983e-17)
(5.63649 0.0920793 3.99942e-17)
(7.00956 0.156921 0)
(4.94683 -0.113972 -2.36301e-16)
(7.38111 -0.364704 0)
(6.6601 -0.0708306 -2.36647e-17)
(6.41535 -0.0792394 1.14774e-17)
(6.29054 -0.0817375 1.09413e-17)
(7.11494 0.340591 -2.79458e-17)
(2.88073 -0.512982 0)
(7.48443 -0.388458 8.40422e-18)
(7.4369 -0.354065 -3.97554e-17)
(4.69748 -0.13087 0)
(4.8938 -0.122007 0)
(2.87561 -0.920597 8.87709e-20)
(7.82464 0.239423 -9.93878e-18)
(7.22266 0.217653 -3.85186e-17)
(7.31449 -0.0346991 0)
(8.38433 -0.0593791 -1.09767e-16)
(7.16801 0.37801 0)
(7.13281 0.33523 1.34215e-17)
(6.94188 0.197602 -3.36096e-17)
(4.67937 -0.501437 0)
(8.17838 0.112406 -4.16358e-17)
(7.97667 0.193744 -8.71792e-17)
(5.93622 0.0293415 5.00144e-17)
(5.77983 0.103512 -5.85902e-17)
(7.34261 0.0970611 -1.35948e-17)
(6.34085 2.16818 1.55026e-18)
(6.37719 2.07364 -1.69272e-18)
(5.95654 -0.142341 -1.97587e-17)
(7.00081 0.0214992 0)
(6.97809 -0.326773 -2.48105e-18)
(7.05516 -0.253954 -2.54493e-18)
(6.99888 -0.283014 0)
(8.16743 -0.0267792 1.31708e-17)
(8.09923 0.0378256 -2.63601e-17)
(3.86988 0.515964 0)
(3.7537 0.678777 2.04605e-17)
(6.37933 2.21234 2.70968e-18)
(6.46565 2.16647 -2.50541e-18)
(6.77463 0.0445462 1.50465e-16)
(6.55601 0.0478228 5.55432e-17)
(0.835934 0.185261 9.64846e-18)
(5.15602 -0.0494068 5.5218e-17)
(7.08034 -0.00530697 -9.69916e-17)
(6.93908 0.139694 -4.09641e-17)
(6.8722 0.16048 6.69612e-17)
(6.82204 0.195571 -5.87556e-17)
(7.00968 0.0564287 0)
(7.00211 0.0446432 -1.17212e-17)
(6.92166 -0.362538 2.49025e-18)
(6.9263 -0.307675 -8.60236e-18)
(6.99849 -0.266151 0)
(3.5568 -1.30684 -2.93755e-17)
(3.46237 -1.13825 -8.28879e-18)
(3.55292 -1.01286 0)
(6.88008 0.1798 -7.05563e-17)
(6.8438 0.249502 -3.90148e-17)
(6.86741 0.215417 4.64888e-17)
(6.81304 0.265087 6.32987e-17)
(7.8589 0.360816 1.04662e-16)
(7.80655 0.313326 -4.52577e-17)
(7.8464 0.237977 0)
(6.78185 -0.0837257 2.85808e-17)
(2.98306 -1.49398 -7.41843e-18)
(6.5987 0.106862 -2.66132e-17)
(6.56238 0.156246 4.5169e-18)
(6.93683 0.0610997 1.15347e-16)
(7.26265 -0.0809807 1.38477e-16)
(3.54939 -1.56829 0)
(3.3549 -1.65112 4.84626e-18)
(5.60544 -0.0391742 -9.48035e-17)
(5.43554 -0.0552131 3.91295e-17)
(7.36696 0.102584 0)
(6.83126 -0.0842282 9.10562e-17)
(7.50995 0.0759198 -4.92486e-17)
(7.3291 -0.163784 0)
(7.43669 -3.82939 8.89598e-18)
(7.26889 -3.48583 -9.19509e-18)
(5.01962 0.0789119 0)
(5.1871 0.0179183 -5.08369e-17)
(5.33807 0.0866271 3.44709e-17)
(4.16002 0.318218 0)
(4.32448 0.27505 2.21946e-17)
(6.85575 0.28449 -1.61491e-17)
(6.84312 0.326911 -1.47004e-17)
(6.81356 0.341474 0)
(7.96454 -0.216327 -7.4264e-17)
(7.05362 0.0111713 0)
(6.96872 -0.0044626 -4.02404e-17)
(6.48638 -0.00436443 -1.72872e-16)
(6.31763 -0.0769894 0)
(6.38834 -0.00022999 1.03647e-17)
(7.12142 0.261395 1.86069e-17)
(7.12671 0.298569 3.45926e-18)
(6.20107 -0.0549016 0)
(6.18363 0.0448937 -2.55212e-17)
(6.07256 0.100663 -1.17322e-16)
(7.01312 0.0302296 0)
(7.55309 -0.360437 0)
(7.68253 -0.309279 0)
(7.6807 -0.281041 0)
(0.850312 -0.119034 -5.0994e-17)
(2.6309 0.380231 -9.1746e-18)
(7.11538 -0.252913 0)
(7.07953 -0.292556 1.30132e-17)
(7.04424 -0.286676 -8.19734e-18)
(3.57823 -0.712693 6.30371e-18)
(3.49685 -0.870058 0)
(7.72243 -0.118818 8.04978e-18)
(7.9787 0.0757412 6.54004e-17)
(7.71903 0.153443 0)
(9.37051 0.463527 1.07056e-18)
(9.32903 0.532829 0)
(5.83738 1.69772 1.40627e-19)
(6.24972 -4.64786 1.14918e-20)
(6.6423 0.578721 -7.31534e-17)
(4.22082 0.470708 1.83365e-18)
(6.24013 1.6008 -3.02335e-20)
(2.85203 0.520664 6.83876e-18)
(4.48779 -0.61815 0)
(6.07843 3.20335 1.58658e-19)
(5.65805 -3.37378 0)
(5.67938 -3.46213 0)
(7.01052 -4.82706 0)
(6.22511 2.30544 0)
(6.22642 2.29407 3.54508e-20)
(6.06942 2.41007 0)
(6.06553 2.43253 -2.03392e-21)
(5.8906 1.30882 0)
(7.43416 0.508519 -4.4972e-19)
(6.48627 -1.97397 0)
(4.41604 -2.50479 1.25642e-18)
(4.87095 0.487578 2.1269e-19)
(6.01771 -2.1587 4.95386e-20)
(6.0474 -2.21392 -6.14828e-20)
(6.88767 -4.80646 -1.495e-19)
(6.88905 -4.80859 0)
(6.60465 1.40727 0)
(8.06588 1.0429 0)
(1.5181 -1.6866 4.3208e-17)
(2.73453 0.100893 -2.22183e-18)
(2.41971 -2.68246 -6.13759e-18)
(2.23765 -2.58117 0)
(6.43727 2.78781 1.67936e-20)
(7.03806 1.06445 0)
(7.0359 1.10367 0)
(5.16015 1.41067 0)
(4.03474 -2.98263 0)
(6.9629 0.83661 -2.3435e-20)
(2.52434 -0.849117 -5.22858e-18)
(6.89203 1.52174 2.69716e-20)
(4.14354 -2.03874 -1.64949e-18)
(5.87128 1.33233 -1.10341e-22)
(4.48864 1.25423 0)
(4.47226 1.20013 0)
(6.4683 2.99582 0)
(7.5459 0.398697 -4.41334e-19)
(6.64831 -4.7509 7.10634e-19)
(3.61578 -3.99838 1.90083e-18)
(3.81262 -3.721 4.63891e-20)
(6.63743 1.38936 0)
(7.95567 -0.389241 0)
(6.02415 3.23048 -3.99753e-19)
(5.97549 3.19162 0)
(5.95438 3.02133 7.33533e-19)
(6.67601 -0.782001 2.01623e-17)
(7.57108 0.704493 0)
(6.93802 1.24436 -5.92833e-20)
(6.67555 -0.882335 2.33162e-17)
(6.03846 3.58977 -1.46908e-21)
(6.36307 -1.96011 -4.5123e-20)
(6.35569 -1.90338 5.31351e-20)
(7.01565 -4.75342 8.13713e-19)
(7.02673 -4.73357 2.80646e-18)
(7.00141 0.973832 -4.17309e-20)
(6.99547 0.920195 -1.13239e-20)
(8.19184 -0.133953 1.29567e-18)
(6.17041 2.27996 0)
(6.20714 2.28721 -3.29188e-20)
(8.67613 1.04713 1.93469e-18)
(6.1629 1.46985 2.63426e-20)
(5.67889 -4.36764 1.61642e-18)
(5.23269 -2.89868 -2.03859e-18)
(5.81727 3.16525 -3.09114e-20)
(6.15429 -2.3361 1.49553e-20)
(7.29732 0.465376 0)
(5.69541 -2.30915 4.19336e-18)
(6.16234 0.878128 -7.38258e-18)
(6.02006 -1.31815 0)
(3.32851 -1.2741 3.29344e-17)
(8.69238 0.110466 2.82878e-20)
(3.0858 2.02847 -3.10638e-18)
(5.67468 2.55621 1.44394e-18)
(5.62338 2.52008 -1.41603e-18)
(6.96769 1.39268 0)
(4.66186 -0.755809 -2.72481e-19)
(4.70528 -0.949915 -2.49035e-19)
(6.18461 2.40551 2.03731e-19)
(6.0787 -2.3379 3.9906e-20)
(4.33232 1.86798 -2.86923e-19)
(2.86801 -0.0609446 6.53755e-18)
(2.9345 0.104235 1.18041e-17)
(6.65008 -1.03483 1.47671e-19)
(5.94222 1.50909 1.06631e-19)
(5.96453 1.52502 -1.72762e-19)
(5.98142 -4.57477 -8.55816e-19)
(5.86052 -4.53143 -2.10468e-20)
(7.95947 0.430623 3.57787e-19)
(7.96591 0.476269 2.5765e-19)
(6.56268 -1.38199 0)
(6.57457 0.920008 -1.4863e-20)
(4.38814 1.58966 1.43713e-18)
(4.51253 1.5499 1.82062e-18)
(6.99159 3.35869 1.20691e-19)
(6.69312 1.00596 -1.71299e-20)
(5.05951 -4.0548 -8.78624e-19)
(6.20538 3.35957 1.42596e-20)
(6.2795 3.24724 -7.54522e-22)
(5.14362 0.00392705 -1.06131e-18)
(5.26189 -0.066016 -4.99713e-19)
(7.20146 -0.556301 0)
(6.26413 1.06957 9.63091e-20)
(7.57769 0.888019 0)
(7.43713 0.87538 2.02577e-19)
(6.1352 1.2247 -1.45143e-19)
(4.91695 -1.53613 0)
(4.86342 -1.56643 0)
(6.06598 1.46254 2.1818e-20)
(7.07272 0.473971 -9.45888e-20)
(7.08799 -4.71318 0)
(5.59377 1.75993 0)
(7.01642 -3.45345 0)
(6.34361 -4.69328 4.67935e-19)
(6.3068 -4.68957 8.36746e-19)
(5.08715 0.507972 1.41665e-18)
(5.11219 0.440263 -1.26267e-18)
(2.91445 -0.981521 -3.52518e-19)
(7.86373 -4.28735 8.99016e-19)
(7.1824 -2.39986 8.54121e-20)
(1.18054 -3.27447 5.02492e-18)
(7.30101 -3.53285 3.27408e-19)
(5.89485 2.24483 -1.10435e-19)
(6.14193 2.52846 5.72329e-19)
(6.83537 -0.246352 -1.98978e-19)
(6.94583 -0.257304 8.7451e-20)
(5.76033 3.01779 6.97993e-20)
(4.70993 -0.55236 1.06028e-18)
(4.55209 -3.39795 5.18278e-18)
(6.34711 1.5443 0)
(8.84913 -1.97025 2.12979e-18)
(7.19127 1.1582 1.68108e-19)
(6.4174 -0.801614 0)
(6.31783 1.15643 3.67774e-20)
(6.17392 2.00973 6.94848e-19)
(6.13057 1.96867 -1.42118e-18)
(7.63017 -0.194381 3.67018e-19)
(7.62147 -0.106296 -6.71156e-19)
(5.91354 -2.74538 -2.28766e-19)
(4.81687 0.999877 -8.225e-19)
(6.30834 2.43925 -9.44722e-20)
(6.37665 3.13476 -1.09491e-21)
(6.92812 1.35616 1.57777e-20)
(5.81508 1.64428 1.33227e-19)
(6.52105 0.994015 0)
(2.34875 -1.90553 0)
(4.46194 -0.521087 0)
(7.96469 1.68907 1.26677e-19)
(7.13407 -0.400653 1.61683e-19)
(6.51191 -1.39302 -8.58482e-20)
(6.42533 -1.47928 0)
(5.25745 0.383312 -1.22882e-18)
(5.29407 0.376717 0)
(5.0575 -3.41663 2.12724e-19)
(5.19451 -3.49601 -1.69321e-19)
(6.21613 -0.700814 0)
(7.94115 0.0410337 0)
(7.93232 0.0947657 0)
(6.93975 -4.81906 0)
(6.90669 -4.81229 0)
(6.48898 2.60581 8.55704e-21)
(6.48577 3.03031 -5.25085e-21)
(6.478 3.06764 1.33753e-20)
(6.26769 2.43514 -1.14311e-19)
(6.67676 -1.19525 1.59931e-19)
(6.58514 -1.30519 6.3297e-20)
(6.98758 3.40947 -2.69769e-19)
(5.66003 1.72288 0)
(5.77628 1.65105 2.56183e-19)
(5.77999 1.61126 1.318e-19)
(6.87782 1.13125 1.28164e-19)
(6.98615 1.12012 -1.20054e-19)
(7.591 -4.91393 4.72216e-18)
(7.68284 -4.88984 0)
(6.01485 2.39651 -2.94377e-20)
(6.47095 -0.678811 5.89581e-20)
(6.45844 -0.783413 0)
(2.89529 0.635451 -7.08543e-18)
(2.85984 0.592897 8.05491e-18)
(2.88867 0.752596 -3.61714e-18)
(6.87045 -4.75126 8.76744e-19)
(5.85855 0.195776 0)
(5.98662 -0.621305 0)
(5.73113 1.18979 2.99425e-19)
(5.83284 -2.1613 0)
(4.93293 1.01032 -8.62267e-20)
(5.01723 0.91772 1.02334e-18)
(7.20124 -4.29597 4.18984e-18)
(6.76865 -0.236406 -2.28328e-19)
(6.18122 2.32961 -1.79687e-19)
(7.05366 1.89133 8.5213e-20)
(7.66386 -0.516491 0)
(7.78791 -0.399669 0)
(5.88332 0.934661 8.44218e-21)
(6.59571 -1.75538 2.32958e-19)
(6.39818 -4.71375 -1.91982e-19)
(6.47314 1.56734 9.17349e-19)
(7.46028 0.842929 0)
(7.54496 0.8468 0)
(6.13107 -4.57867 4.93139e-19)
(6.27722 -4.62864 0)
(6.77883 -4.46981 -6.57638e-19)
(5.1641 0.737844 0)
(5.13151 0.0774325 1.80908e-19)
(3.25327 -3.20417 0)
(6.28336 2.33867 1.10425e-19)
(6.1331 -4.64833 0)
(6.27435 2.36939 5.3136e-20)
(6.31317 2.4013 -9.44206e-20)
(5.64015 -3.53829 2.32377e-19)
(5.54813 -3.65264 0)
(6.98095 -0.74672 0)
(6.92427 -0.786594 0)
(7.89423 1.28863 0)
(6.25562 2.35703 -5.58749e-20)
(6.22168 2.32683 1.74368e-19)
(6.31051 2.38188 -5.9961e-20)
(6.33089 2.38036 5.17833e-20)
(6.29555 2.3671 7.88836e-22)
(7.05986 0.908421 -1.07312e-19)
(5.18872 1.38994 0)
(8.76748 -2.00986 9.05725e-19)
(6.44033 2.82204 7.50421e-21)
(6.24631 2.63168 -2.88601e-19)
(6.21463 2.64055 0)
(5.44433 -4.3641 -3.4986e-19)
(5.43348 -4.39157 3.59831e-19)
(6.46724 1.41584 -6.95298e-22)
(4.60024 0.874104 -4.72601e-20)
(4.34722 -1.47555 -1.9353e-17)
(4.00136 -1.13119 2.17519e-17)
(5.10186 -1.82879 1.50817e-18)
(5.98705 1.58443 1.2017e-19)
(4.19846 0.399072 -2.92419e-18)
(6.04513 2.36952 -1.55502e-19)
(6.4016 2.44001 1.28893e-20)
(7.50626 -4.1573 -1.07323e-18)
(4.62518 1.47409 0)
(5.37347 -0.0996655 -6.76821e-19)
(6.0324 2.44887 4.98676e-19)
(6.04571 2.43532 -6.76346e-19)
(6.00868 2.43804 -1.43151e-19)
(6.20345 -1.89799 2.49958e-20)
(6.48901 -1.09417 0)
(7.36269 -3.89128 9.92405e-19)
(6.34491 -1.13374 1.13148e-20)
(6.28697 -1.23631 2.28552e-20)
(7.3592 0.874926 1.40298e-19)
(6.79745 -4.76275 -2.48642e-21)
(6.69924 -4.74779 0)
(5.99097 -3.50385 4.01173e-19)
(6.93161 -4.26264 2.67293e-19)
(6.27968 -3.21511 1.36346e-19)
(6.51613 -4.73744 6.99966e-19)
(7.62588 -1.05056 -7.11815e-20)
(3.82188 -3.5019 -1.57314e-18)
(3.90628 -3.57131 6.50433e-22)
(1.69887 -1.44499 1.66711e-17)
(6.7265 -4.7436 2.53798e-19)
(6.70659 -4.72832 0)
(6.77782 -4.74966 -2.88798e-19)
(2.74063 0.732506 -1.01109e-17)
(4.90098 1.24382 -3.8524e-19)
(4.88109 1.29188 2.03094e-18)
(6.04448 -1.51386 0)
(6.65263 -4.73526 6.3726e-19)
(7.37304 -0.567157 -1.17423e-19)
(7.4929 -0.537939 -1.43676e-19)
(6.02852 -0.0204353 -1.15318e-19)
(7.14424 1.0896 1.11915e-19)
(5.41091 3.08486 -4.85612e-19)
(3.09412 0.557002 0)
(7.47463 -4.31645 0)
(6.43791 1.64665 4.6987e-18)
(6.29259 -2.02171 2.41469e-22)
(5.86454 2.79835 1.2147e-18)
(5.86977 2.93604 -5.37676e-19)
(6.17765 -0.720048 0)
(6.17488 -0.821695 2.22767e-20)
(6.13944 -0.874723 -7.14976e-20)
(6.99006 -4.92099 1.36041e-19)
(3.71636 -1.53636 -4.69314e-18)
(6.36782 2.81333 -1.14211e-19)
(6.23721 2.92427 5.45723e-19)
(2.25206 -0.982316 -1.33235e-17)
(6.13087 2.81962 1.53003e-18)
(5.5888 -3.82012 0)
(6.21904 3.02807 6.55238e-20)
(6.18105 3.136 -5.00225e-20)
(6.9172 -4.79942 -4.72819e-19)
(5.47642 -0.0968799 -8.04556e-19)
(6.29513 3.29586 0)
(6.26339 3.35392 6.99528e-21)
(4.58156 0.422778 -1.0895e-18)
(4.16392 -3.59506 7.90106e-19)
(7.35937 0.784054 4.71048e-19)
(3.83427 1.90527 -2.31729e-20)
(5.33555 -4.2101 5.54603e-19)
(5.18869 -4.16117 -1.28618e-18)
(6.36942 2.63551 -3.10354e-20)
(5.96345 -0.157721 0)
(4.7754 0.0219628 -1.30041e-19)
(4.83709 -0.0937352 0)
(4.77471 -0.0841216 1.20931e-19)
(4.32345 1.59648 -1.83345e-18)
(6.09174 -1.496 -9.35452e-20)
(6.14786 -1.42481 0)
(6.26266 -1.37174 8.96151e-21)
(6.26038 -1.26873 -2.29817e-20)
(6.58626 -1.23787 4.77753e-20)
(6.63399 -1.17268 -1.77225e-19)
(7.34438 -0.524372 -1.19536e-19)
(7.25796 -0.520625 1.16972e-19)
(7.39439 -0.437051 0)
(4.72081 0.926644 -3.98891e-21)
(4.67367 0.864582 -1.94447e-18)
(4.16694 0.542309 4.97969e-18)
(6.25114 -0.971637 6.2936e-21)
(6.2439 -1.07715 0)
(6.82961 -4.78401 2.42998e-19)
(6.88018 -4.80029 -2.38096e-19)
(6.24048 -4.4722 -2.93309e-18)
(6.2571 -4.51337 1.46909e-18)
(5.01416 -4.11209 -6.36359e-19)
(4.91145 -4.0553 -5.51135e-19)
(7.34232 1.05393 4.475e-19)
(5.94536 -3.92683 -1.20096e-18)
(5.78562 -3.84276 9.26892e-19)
(6.5626 -0.677709 -3.85874e-17)
(6.60006 -0.76994 -2.66918e-17)
(4.57984 -3.02854 3.36287e-20)
(4.50637 -3.02262 0)
(7.48598 -0.774776 6.31363e-19)