/*--------------------------------*- C++ -*----------------------------------*\
  =========                 |
  \\      /  F ield         | OpenFOAM: The Open Source CFD Toolbox
   \\    /   O peration     | Website:  https://openfoam.org
    \\  /    A nd           | Version:  6
     \\/     M anipulation  |
\*---------------------------------------------------------------------------*/
FoamFile
{
    version     2.0;
    format      ascii;
    class       volScalarField;
    location    "1400";
    object      nuTilda;
}
// * * * * * * * * * * * * * * * * * * * * * * * * * * * * * * * * * * * * * //

dimensions      [0 2 -1 0 0 0 0];

internalField   nonuniform List<scalar> 
29874
(
0.25161
0.207257
0.121571
0.155393
0.179019
0.241515
0.217067
0.141058
0.152903
0.141856
0.268013
0.258004
0.182041
0.262918
0.266039
0.2831
0.175245
0.277003
0.118827
0.141927
0.14066
0.143784
0.140534
0.153399
0.144483
0.177047
0.219756
0.143848
0.23343
0.233613
0.229534
0.195389
0.194872
0.220652
0.151478
0.15801
0.142246
0.162896
0.164077
0.200361
0.139904
0.139655
0.145185
0.133089
0.191334
0.160716
0.178009
0.244982
0.239006
0.239812
0.193753
0.291128
0.267454
0.278928
0.19952
0.19289
0.134863
0.169838
0.166088
0.172032
0.163765
0.149104
0.147478
0.16741
0.123467
0.189824
0.238434
0.176398
0.262171
0.283381
0.154935
0.148351
0.144379
0.109379
0.284827
0.230366
0.231857
0.226222
0.182952
0.164765
0.192338
0.110251
0.138321
0.146659
0.0954147
0.109361
0.148785
0.140872
0.188073
0.163248
0.0702363
0.139495
0.138612
0.145293
0.13468
0.138242
0.135922
0.098254
0.0613014
0.101404
0.150877
0.138567
0.138795
0.167694
0.211669
0.0633564
0.0756065
0.154624
0.158881
0.144444
0.0748239
0.195862
0.205241
0.138521
0.138522
0.138786
0.134797
0.150741
0.000254795
0.142241
0.139781
0.178412
0.130097
0.114795
0.136797
0.138612
0.15316
0.146941
0.142072
0.135023
0.14001
0.137082
0.150495
0.143212
0.14357
0.143279
0.146253
0.134518
0.143817
0.233527
0.200252
0.171777
0.278121
0.169538
0.149491
0.152048
0.170743
0.18288
0.139763
0.276463
0.246752
0.240815
0.294348
0.119702
0.13553
0.140104
0.150231
0.162036
0.183713
0.185242
0.167
0.181128
0.222263
0.163058
0.215983
0.19011
0.171877
0.150223
0.149347
0.154351
0.194022
0.173006
0.16444
0.0923251
0.0808488
0.154998
0.148086
0.000336033
0.14781
0.145025
0.00027441
0.000253608
0.160469
0.143082
0.140971
0.158885
0.138312
0.138654
0.140698
0.138608
0.138488
0.190411
0.144914
0.139442
0.170671
0.14327
0.141862
0.154946
0.000509462
0.00050797
0.152227
0.150786
0.176746
0.163711
0.141026
0.138942
0.140612
0.21657
0.146727
0.140024
0.142438
0.145683
0.133813
0.141675
0.142999
0.146164
0.145638
0.142561
0.146307
0.152955
0.235803
0.197377
0.197862
0.162332
0.139688
0.146
0.151421
0.149339
0.161397
0.139076
0.139975
0.140013
0.137893
0.129685
0.144505
0.146549
0.135276
0.170915
0.159458
0.195984
0.198652
0.00669805
0.0421609
0.102013
0.107626
0.0379843
0.0358722
0.0525111
0.131713
0.0455202
0.0824467
0.127009
0.078117
0.0398941
0.103851
0.0515273
0.0423861
0.000515969
0.0444979
0.0465526
0.0354814
0.0403893
0.0423322
0.049411
0.053887
0.0486197
0.0513741
0.115523
0.111985
0.000340864
0.0428998
0.040633
0.0953427
0.0719074
0.108532
0.0803068
0.0212062
0.000801094
0.104054
0.0612561
0.0594717
0.12662
0.126474
0.121944
0.121662
0.0708052
0.125196
0.125353
0.0523753
0.0559264
0.0848648
0.0887506
0.0901121
0.0514618
0.0545429
0.047137
0.0479316
0.0285471
0.0860467
0.0880139
0.0974579
0.0296124
0.117361
0.0288747
0.0918241
0.089593
0.0457191
0.12771
0.0244271
0.00404393
0.0441381
0.0450848
0.0242436
0.0266276
0.0216854
0.0443463
0.0446425
0.0590623
0.114213
0.112048
0.0530816
0.0519508
0.0407906
0.0458927
0.110577
0.108526
0.111239
0.138262
0.047527
0.0472869
0.136007
0.136463
0.0429824
0.0415478
0.0483233
0.0381089
0.111387
0.112829
0.112992
0.111363
0.0413434
0.0186032
0.0442432
0.0481002
0.0462742
0.046008
0.116342
0.116432
0.0496703
0.0909047
0.128251
0.124314
0.0560143
0.0526405
0.0633331
0.1058
0.0530045
0.0533749
0.108348
0.00032361
0.0528446
0.0279923
0.0538272
0.0453998
0.0442512
0.0887005
0.0895853
0.0872791
0.132245
0.0606424
0.0562088
0.0597633
0.0564595
0.139523
0.13129
0.06286
0.0706061
0.0688069
0.0629982
0.0727308
0.0397243
0.0397486
0.120563
0.131283
0.110576
0.110497
0.115187
0.113597
0.115163
0.112354
0.0569611
0.0564254
0.0383858
0.0544198
0.0548324
0.0463043
0.0453923
0.0473927
0.0439865
0.138052
0.0510278
0.0523888
0.0534463
0.126769
0.122673
0.130434
0.0477761
0.0506844
0.0477361
0.0502672
0.0897215
0.0822146
0.0854606
0.0871245
0.136784
0.0180039
0.0227126
0.0416458
0.0378427
0.0457406
0.0453744
0.0428334
0.0817026
0.0698779
0.0864768
0.082906
0.0811233
0.0886953
0.05965
0.0595406
0.0454133
0.0450738
0.0481106
0.0426917
0.0403406
0.0478208
0.0413196
0.03951
0.0430115
0.0691476
0.0769217
0.0710481
0.0739134
0.0523525
0.0489565
0.139378
0.140161
0.138073
0.13677
0.14055
0.0520687
0.0553025
0.0493065
0.0796073
0.0901287
0.0845503
0.0426411
0.044574
0.0461668
0.0416949
0.0564331
0.054993
0.0563048
0.0544529
0.0425991
0.0423308
0.040828
0.0777488
0.150979
0.144067
0.147618
0.148152
0.0660281
0.113582
0.105054
0.104026
0.10738
0.0487613
0.0449729
0.0524417
0.0741332
0.0611376
0.0673781
0.064695
0.0634596
0.138163
0.0435156
0.0409688
0.0407157
0.0434146
0.165918
0.000254778
0.137324
0.193935
0.000524157
0.138566
0.167987
0.13951
0.139497
0.139534
0.170276
0.115865
0.138022
0.13878
0.104745
0.13466
0.132902
0.138433
0.136602
0.117841
0.138481
0.13812
0.116323
0.138673
0.138431
0.00363499
0.139144
0.142238
0.000211891
0.138392
0.138788
0.140444
0.115232
0.14014
0.117301
0.117934
0.135147
0.139318
0.13212
0.134354
0.127176
0.15242
0.128688
0.124283
0.133798
0.129462
0.138821
0.130545
0.127529
0.121678
0.0972397
0.095973
0.000216318
0.00539644
0.157565
0.166393
0.138516
0.102823
0.106285
0.139288
0.13404
0.139805
0.139596
0.1383
0.0535181
0.0595025
0.0602972
0.123627
0.139197
0.223957
0.126425
0.102452
0.0969017
0.0974544
0.138673
0.00912501
0.13131
0.13272
0.100625
0.106581
0.0390951
0.148861
0.140513
0.235275
0.203152
0.138312
0.138528
0.138468
0.0956219
0.158292
0.146426
0.128365
0.126549
0.145536
0.11875
0.120479
0.105791
0.139816
0.127177
0.137271
0.133814
0.158782
0.147735
0.0748816
0.0694181
0.118406
0.119862
0.143324
0.140216
0.000745244
0.149709
0.181872
0.142211
0.14034
0.139984
0.139295
0.139826
0.126741
0.134421
0.139192
0.0559215
0.0557957
0.0595746
0.139067
0.138163
0.13837
0.137965
0.139757
0.143395
0.147663
0.110857
0.0376974
0.13947
0.138101
0.145585
0.153678
0.0498829
0.0452665
0.121956
0.118897
0.161232
0.218805
0.159299
0.177559
0.0509409
0.0504103
0.110538
0.114357
0.117727
0.0851503
0.0913364
0.137799
0.13762
0.137347
0.170753
0.141027
0.138779
0.138699
0.133939
0.135732
0.139121
0.138593
0.132604
0.133046
0.130956
0.139741
0.137019
0.145807
0.149409
0.000447014
0.00429078
0.117459
0.113413
0.122358
0.0636595
0.059398
0.168004
0.170258
0.158073
0.00580279
0.00682111
0.077042
0.0297349
0.135645
0.0365333
0.0719885
0.0327111
0.0369462
0.0621552
0.0596036
0.0592122
0.0631597
0.0864374
0.0861966
0.094027
0.0949106
0.0736209
0.0421125
0.0576783
0.0313752
0.0509719
0.0672673
0.0669626
0.0524156
0.0522364
0.0636164
0.0295148
0.00321455
0.0307465
0.00366283
0.00241174
0.0704198
0.0526362
0.0528573
0.0642024
0.0229384
0.0525678
0.0248687
0.0587139
0.0263557
0.0740021
0.04706
0.0461479
0.0624222
0.0397576
0.0416932
0.0150902
0.0181508
0.0627592
0.0290148
0.0616542
0.0635551
0.0928799
0.105726
0.0401892
0.0557936
0.0964764
0.0467927
0.060924
0.0611183
0.0620003
0.0622557
0.0527002
0.0525232
0.0253131
0.0875074
0.0865815
0.0152447
0.0716101
0.0189014
0.00161733
0.0650879
0.0657205
0.044892
0.00159652
0.00136752
0.0673477
0.0723811
0.0156912
0.0042509
0.091043
0.0917438
0.0561539
0.0402439
0.040527
0.0899428
0.0665189
0.0478706
0.0385759
0.0403213
0.0518328
0.0746539
0.0745892
0.0233714
0.0209875
0.031584
0.0312412
0.0547774
0.0602024
0.0471455
0.0499715
0.036202
0.0586474
0.00683576
0.0540576
0.0570648
0.0570071
0.06094
0.0423385
0.066668
0.0406396
0.0435678
0.0700935
0.0449286
0.0434466
0.0727839
0.0488156
0.0624954
0.0760457
0.0389819
0.0310558
0.0296925
0.0569659
0.0575947
0.0793407
0.0097587
0.0366163
0.00144381
0.0259286
0.0884274
0.105009
0.0500475
0.0478644
0.0717947
0.0421816
0.0326312
0.0695702
0.00982408
0.0500859
0.0581584
0.0664307
0.118428
0.118343
0.0359271
0.0364428
0.0661124
0.0526323
0.0840255
0.0597591
0.0567994
0.076535
0.0616158
0.0175648
0.0367883
0.0311264
0.0439352
0.0560555
0.058521
0.0618767
0.062792
0.0132578
0.0152875
0.063016
0.0305892
0.0311196
0.0561006
0.0533788
0.0736405
0.0608265
0.0597499
0.0861201
0.0514028
0.0539349
0.0347884
0.0765059
0.0766298
0.0763692
0.0561232
0.0539509
0.0453816
0.0420122
0.105206
0.0569922
0.0571366
0.0338675
0.0325646
0.0319655
0.0536863
0.0704183
0.0678787
0.0740352
0.0678689
0.0555287
0.0569918
0.0582506
0.0512289
0.0883593
0.0567428
0.0340339
0.0327169
0.0718564
0.0539605
0.0316798
0.127189
0.0428592
0.0412447
0.0279111
0.0314251
0.0246963
0.0603848
0.0564869
0.0196327
0.0847179
0.0255854
0.0853972
0.0838184
0.0577522
0.0549192
0.0458011
0.0467864
0.0337949
0.0860597
0.0869751
0.0838121
0.082998
0.0844661
0.0513458
0.0649892
0.0108491
0.0691563
0.0834484
0.0846165
0.0136336
0.0131031
0.0661841
0.0468475
0.0733155
0.0811912
0.0689291
0.0749331
0.0356424
0.0926359
0.0797064
0.0146477
0.0515396
0.0643177
0.0955515
0.0950328
0.0948335
0.0647419
0.056489
0.020112
0.0602781
0.0618922
0.0450622
0.049412
0.0446725
0.0326756
0.0264453
0.0638851
0.0358631
0.0328307
0.0187666
0.0197531
0.00549396
0.046287
0.046057
0.0486883
0.0243568
0.0564023
0.0561088
0.0669992
0.042884
0.0389672
0.0373294
0.0674289
0.0504561
0.0664759
0.0430619
0.0512913
0.126124
0.0628899
0.0818354
0.07533
0.0638401
0.0639447
0.0647536
0.0638019
0.0199885
0.10573
0.100868
0.0153179
0.100511
0.0217285
0.0671695
0.0634323
0.0552167
0.0669603
0.0548594
0.0532842
0.0438661
0.00392269
0.0446718
0.0342856
0.0127048
0.00964236
0.0780215
0.0684868
0.046237
0.0471188
0.0458543
0.0455635
0.066398
0.0651859
0.0629795
0.0627122
0.0539595
0.0526039
0.0398647
0.0412806
0.0392677
0.0497558
0.0483491
0.0359317
0.0622997
0.0624985
0.0497845
0.0524782
0.0337183
0.0336766
0.00559207
0.00436058
0.0461905
0.0300277
0.0265432
0.115624
0.109755
0.0336933
0.0318586
0.0362977
0.0331567
0.0301889
0.043565
0.0467718
0.0517109
0.0562445
0.0314572
0.096218
0.0920104
0.101823
0.101223
0.100072
0.0609217
0.105976
0.103315
0.0652213
0.0516313
0.0201468
0.0214823
0.0167631
0.0777128
0.0493807
0.0445881
0.0582152
0.0386691
0.076156
0.0765581
0.0762396
0.0454127
0.0511543
0.0518453
0.0498887
0.0484475
0.0594384
0.0594663
0.0615919
0.0549279
0.0562331
0.0567092
0.058008
0.0374776
0.0359751
0.06326
0.0629294
0.0628864
0.0632315
0.0536824
0.0547648
0.0533127
0.08885
0.0533483
0.0678666
0.0519678
0.0368641
0.00110402
0.0608936
0.0325987
0.0316647
0.102022
0.100738
0.102472
0.068243
0.0673384
0.0680285
0.0413596
0.0771425
0.0750665
0.0783782
0.081834
0.0814994
0.0803189
0.0802394
0.0511292
0.0521892
0.0700696
0.0119727
0.0701509
0.0210875
0.0917252
0.0562397
0.0406761
0.122223
0.0172497
0.0572147
0.0574125
0.0487699
0.0448254
0.043259
0.045996
0.0867103
0.106434
0.103429
0.0890812
0.0852869
0.0603337
0.0612771
0.0577004
0.0472743
0.0691169
0.0688092
0.0377354
0.0391248
0.0824058
0.0356724
0.0335127
0.0342028
0.0554512
0.0539892
0.0541601
0.00868482
0.0165942
0.000640407
0.0670521
0.0657927
0.10189
0.0794308
0.000778637
0.0461354
0.0446597
0.0894729
0.0482137
0.0501683
0.0496421
0.048675
0.064758
0.0661297
0.0613767
0.0622737
0.034265
0.0327001
0.0619815
0.00978404
0.042242
0.043504
0.000569715
0.0680839
0.0676729
0.068483
0.0633368
0.0318187
0.0301266
0.0325101
0.00741687
0.0206674
0.0193216
0.0647429
0.0640049
0.0777952
0.0939135
0.093741
0.0931469
0.100664
0.0993281
0.0996581
0.04128
0.0674417
0.0665631
0.0886018
0.0870529
0.0878061
0.00052973
0.0321255
0.0592297
0.060221
0.103833
0.102037
0.102545
0.103372
0.0656569
0.0654572
0.0267963
0.0237296
0.108599
0.000953042
0.0742204
0.0733043
0.0599484
0.0605243
0.058693
0.00102712
0.0936425
0.0887228
0.000455245
0.000791486
0.0017994
0.0764202
0.0763404
0.076145
0.0520199
0.0360619
0.0387361
0.0962746
0.0726383
0.0517277
0.0517866
0.0509332
0.0634392
0.0630499
0.0351165
0.000676375
0.0995229
0.0584646
0.0588984
0.056376
0.0378891
0.0372986
0.0918648
0.0925013
0.0916908
0.093461
0.0932205
0.0957415
0.0578762
0.000491741
0.0559501
0.0312513
0.106926
0.104128
0.0209961
0.0193708
0.0395707
0.0400617
0.0692216
0.0630367
0.0633209
0.0621255
0.0606504
0.0614741
0.0298721
0.0260497
0.0561806
0.000682011
0.000399302
0.0642839
0.0372602
0.0361426
0.0145721
0.0149204
0.0552148
0.0338996
0.0324436
0.0399639
0.106208
0.102488
0.0637656
0.0627674
0.0221277
0.0625395
0.0371694
0.0777306
0.0775645
0.0604993
0.0597052
0.0343294
0.0315269
0.000444906
0.00076155
0.0515597
0.0712825
0.0711863
0.000358522
0.0736493
0.0745201
0.0653442
0.0457605
0.0422003
0.0437879
0.0713736
0.0910457
0.0947516
0.0955672
0.0964612
0.0964138
0.0351257
0.024311
0.093088
0.0944229
0.0948753
0.0925352
0.0797441
0.0777619
0.101742
0.0664169
0.0610241
0.0600771
0.0741672
0.0948382
0.0963073
0.00119963
0.0026173
0.0578181
0.0592999
0.0592998
0.0574911
0.0459847
0.0616388
0.0690809
0.069476
0.058757
0.0507701
0.0514554
0.0408449
0.0377549
0.0397806
0.0384919
0.0667339
0.0664375
0.065678
0.0664136
0.0531074
0.0542466
0.0533304
0.0539521
0.0368402
0.0378222
0.0386622
0.0361823
0.0322428
0.0355585
0.0317878
0.00068629
0.00115405
0.0408778
0.0414477
0.0560517
0.0544757
0.0552362
0.0553299
0.0268868
0.0308908
0.112688
0.11474
0.107967
0.0387759
0.0901707
0.0924845
0.0592692
0.0589162
0.0597357
0.0589231
0.068907
0.0680486
0.0751633
0.0742594
0.0850486
0.0860376
0.0484148
0.0470315
0.0470309
0.0483297
0.0910888
0.0916023
0.0908462
0.0917722
0.0123308
0.0202779
0.0877141
0.0896525
0.0894451
0.0877624
0.0880485
0.0576681
0.0577638
0.0597626
0.00132653
0.0222523
0.0210539
0.0253071
0.0530999
0.0534733
0.0513885
0.0492795
0.0923408
0.0397024
0.040974
0.0540216
0.0565638
0.0536004
0.0485646
0.0498756
0.0498377
0.0366292
0.0587249
0.0592995
0.0583827
0.0597803
0.0413411
0.0398174
0.0420423
0.0485455
0.049663
0.048976
0.0559721
0.0570572
0.0571056
0.0557895
0.0710205
0.0704864
0.0712595
0.110856
0.108037
0.109241
0.0676063
0.0907266
0.0907729
0.0911921
0.0903412
0.0567792
0.0565758
0.0555382
0.0577771
0.0349696
0.0388938
0.0404264
0.0496863
0.0510035
0.0502298
0.00456439
0.00462012
0.0540709
0.0383382
0.0134749
0.0162749
0.0433546
0.0421111
0.0445014
0.0569207
0.0588533
0.0578432
0.0438877
0.0453173
0.137095
0.137327
0.0221529
0.0553642
0.053224
0.0552798
0.052177
0.0492997
0.0236852
0.0471919
0.0466118
0.0145482
0.0185609
0.0600882
0.0696066
0.068861
0.0693144
0.0691897
0.00803238
0.00782694
0.0573875
0.0544166
0.0570525
0.0538746
0.0194252
0.0724422
0.0981468
0.00772227
0.0603541
0.0593437
0.0963396
0.0983323
0.0968749
0.0502936
0.0458783
0.0515795
0.0580786
0.0571069
0.0835836
0.0802386
0.0815383
0.103406
0.104999
0.104583
0.10374
0.0671399
0.0683289
0.0678516
0.0130693
0.012735
0.0514607
0.0506709
0.0503944
0.0949402
0.098634
0.06679
0.0668156
0.0672033
0.0663614
0.0516335
0.047255
0.0488147
0.0497692
0.032198
0.0412272
0.040246
0.0595526
0.0582991
0.0587944
0.0591402
0.0434552
0.0426826
0.0436697
0.0423786
0.0756765
0.0759808
0.0760179
0.0556609
0.0554401
0.0568409
0.0586222
0.0588788
0.0593289
0.0581811
0.0268671
0.023503
0.0230308
0.0280441
0.0359333
0.0417988
0.0377045
0.0379195
0.0596339
0.060506
0.0601623
0.0477593
0.0461941
0.0413761
0.0396628
0.0404059
0.0406058
0.00843736
0.00648393
0.0822976
0.0796176
0.0806162
0.0811958
0.0846511
0.0862368
0.08227
0.103791
0.118956
0.0869166
0.0890669
0.0534033
0.0524157
0.0525304
0.111295
0.107833
0.136502
0.0759429
0.0760154
0.0735925
0.0561178
0.0544158
0.0556676
0.0434251
0.0428094
0.0437988
0.0423267
0.0932866
0.0934528
0.0923216
0.0476104
0.0490381
0.0499464
0.0401567
0.0392144
0.0278388
0.0302286
0.0299842
0.0456429
0.0475909
0.0468504
0.0463673
0.0429384
0.0409657
0.0423354
0.0922573
0.093167
0.0936503
0.0919025
0.029318
0.0479941
0.044206
0.0438443
0.0428954
0.0639533
0.0637577
0.0641419
0.0637477
0.0457542
0.0467948
0.0470649
0.0455996
0.0474497
0.0471044
0.0488947
0.0114963
0.010141
0.0118206
0.0640756
0.0651142
0.0638972
0.0646499
0.0633047
0.111872
0.111714
0.0745862
0.0391368
0.0631137
0.0589712
0.045801
0.0485551
0.047772
0.0467247
0.0639401
0.063876
0.0853324
0.0875439
0.084043
0.0449958
0.0456418
0.0462291
0.0907677
0.0900264
0.0900922
0.09064
0.042502
0.0419566
0.0436611
0.0407058
0.0188065
0.0151566
0.0169339
0.0896058
0.0886169
0.089261
0.0689696
0.0683682
0.0920068
0.0919435
0.0299443
0.0261627
0.0269917
0.0322146
0.0309292
0.0317504
0.0857641
0.0572845
0.0587559
0.0581646
0.0578837
0.0461196
0.0503192
0.0667625
0.066692
0.0668931
0.0619135
0.0617603
0.062214
0.0615198
0.0658419
0.0662922
0.0654544
0.0401085
0.0412285
0.040172
0.0410546
0.0379035
0.0387448
0.0502533
0.0525904
0.0530164
0.0641525
0.0643015
0.0632905
0.0857577
0.0853921
0.0849879
0.0399062
0.0420787
0.0430845
0.0393626
0.00714911
0.00853774
0.0537103
0.0347889
0.0302619
0.0328182
0.0899069
0.0893293
0.0923434
0.000869719
0.00861391
0.0564758
0.0571468
0.057467
0.0748984
0.075045
0.0571497
0.0141907
0.0808371
0.080559
0.0816824
0.0796426
0.117737
0.117202
0.11922
0.0463978
0.0444805
0.0455768
0.0687661
0.0693537
0.0891246
0.0868443
0.0874519
0.0886275
0.0542963
0.0533333
0.0551297
0.0937412
0.0934251
0.0944563
0.0928034
0.0303835
0.0303552
0.0367589
0.0333314
0.0577499
0.059513
0.0575328
0.0579099
0.0590122
0.0188869
0.0149141
0.0569468
0.0547862
0.056538
0.0547025
0.0583904
0.0641801
0.0644491
0.0869938
0.100885
0.100671
0.100134
0.101572
0.0438583
0.0436158
0.044654
0.00979627
0.0101519
0.0598041
0.0610604
0.058871
0.0541483
0.0551174
0.053982
0.0551663
0.072812
0.0721286
0.0862968
0.0953714
0.0907444
0.0996747
0.0991071
0.0985077
0.0450835
0.0469942
0.0461314
0.0459779
0.0504161
0.0500077
0.0648972
0.0484889
0.0472584
0.0482188
0.0476152
0.117494
0.11624
0.0333903
0.032684
0.0545978
0.0554548
0.0555643
0.0544203
0.0684087
0.0676407
0.0680704
0.067993
0.119604
0.0899233
0.0894736
0.0506477
0.0535049
0.0528635
0.050717
0.0420788
0.0441756
0.0648622
0.107881
0.106429
0.109054
0.0592633
0.0581506
0.0587228
0.0587143
0.034842
0.0387904
0.0363553
0.0239399
0.0212154
0.0555587
0.0579897
0.0578097
0.0564853
0.0172284
0.00404239
0.0907541
0.0912152
0.0252298
0.0914214
0.0903497
0.0408743
0.0978883
0.100382
0.0765306
0.079464
0.0489412
0.0448393
0.0812929
0.0606636
0.0598401
0.061042
0.0732307
0.0467607
0.0446736
0.0459764
0.0489139
0.0477207
0.0487949
0.0477273
0.123176
0.124398
0.0347707
0.037209
0.037551
0.0382255
0.0364633
0.0333825
0.0343811
0.0329084
0.0349644
0.13874
0.0922667
0.0905725
0.0923137
0.0903124
0.0525487
0.0398483
0.0341949
0.0375687
0.0369675
0.0427815
0.0426046
0.0449814
0.0405142
0.137989
0.138175
0.0598783
0.0607499
0.0610631
0.0124098
0.0110031
0.0322836
0.05362
0.0524419
0.0524427
0.0535188
0.0600521
0.0608378
0.0111774
0.0418429
0.0305691
0.0272874
0.0301062
0.0269587
0.0430697
0.0417029
0.0440793
0.000386434
0.0667543
0.0671654
0.0660748
0.108445
0.0986296
0.0711373
0.0489939
0.0576725
0.0588141
0.0575184
0.0953373
0.0960282
0.0504206
0.0519107
0.0506792
0.055973
0.0501687
0.0514723
0.0490218
0.0601776
0.0610033
0.0598735
0.120502
0.115149
0.113495
0.113797
0.114914
0.0487012
0.0470644
0.0496749
0.046402
0.000131834
0.0518389
0.0532278
0.0530511
0.0678395
0.0661362
0.0706913
0.0333478
0.00605565
0.0960243
0.0564797
0.0572935
0.0648616
0.0649823
0.0275517
0.0286475
0.0270268
0.103853
0.104748
0.103221
0.105305
0.108908
0.0589744
0.0600142
0.0598253
0.0591112
0.0842189
0.0832351
0.0583323
0.0574502
0.0972269
0.0961527
0.0967356
0.0964991
0.0278155
0.0301685
0.0285401
0.0346672
0.0349536
0.0340095
0.0355746
0.0583639
0.0566688
0.0564918
0.0579766
0.0231814
0.0595097
0.0574811
0.0582844
0.0103584
0.0469087
0.0435694
0.0457169
0.0444733
0.0359798
0.0391632
0.0360693
0.0921203
0.0915816
0.0920177
0.0803148
0.0803124
0.0401819
0.0413545
0.0376047
0.0434596
0.0633957
0.0627564
0.0634292
0.0626655
0.0608976
0.0599226
0.0604274
0.0604003
0.089446
0.0890161
0.0896581
0.0887681
0.00385883
0.00389255
0.00408817
0.0125776
0.0519178
0.0495055
0.0435939
0.0421357
0.0426792
0.043073
0.0401974
0.108896
0.108456
0.107741
0.109769
0.0721103
0.135767
0.134787
0.135064
0.13523
0.0602712
0.0617656
0.0604671
0.0130101
0.0330735
0.0352094
0.0703211
0.0707811
0.0699736
0.0899164
0.0897667
0.089691
0.000183808
0.0464437
0.0439791
0.0448869
0.066621
0.0634427
0.0640447
0.063096
0.0412338
0.0418524
0.0421621
0.0647697
0.0577048
0.0587241
0.0576724
0.0586489
0.000461697
0.0505051
0.0468233
0.0497162
0.0459214
0.0708112
0.0677829
0.0723959
0.0486137
0.049742
0.0542597
0.0522868
0.0396372
0.0624013
0.0615926
0.0616892
0.0622754
0.112694
0.0538365
0.0549866
0.000672922
0.12142
0.121108
0.087686
0.0874784
0.0869756
0.0881836
0.0576389
0.0526498
0.0564982
0.0545188
0.0375238
0.0391854
0.133272
0.0558782
0.0574412
0.0566127
0.0566859
0.0467092
0.0472235
0.0435681
0.0448551
0.0351781
0.0313531
0.0398192
0.0413094
0.0404061
0.0407814
0.00113794
0.036668
0.0365466
0.0349448
0.0382906
0.0669848
0.0672985
0.0671555
0.0198721
0.0173863
0.0516146
0.0514249
0.0717067
0.0484082
0.0492888
0.13717
0.0745936
0.0870319
0.086293
0.087389
0.0858208
0.133073
0.138184
0.0252975
0.0102979
0.0100612
0.019552
0.0308098
0.00589849
0.0113517
0.0116331
0.01481
0.0638658
0.0375314
0.138599
0.00962123
0.00990118
0.00586064
0.0052256
0.138588
0.138427
0.13845
0.138263
0.00914398
0.0537724
0.0530642
0.12231
0.117845
0.127631
0.125532
0.0793325
0.0824343
0.0140903
0.00808462
0.000333066
0.0620505
0.00100765
0.0190181
0.000605228
0.0079502
0.00984925
0.13081
0.080969
0.0309106
0.0226843
0.0250773
0.000397266
0.139166
0.00512469
0.00503336
0.00593622
0.0622203
0.00482751
0.149193
0.144581
0.00739153
0.138
0.000180869
0.0256609
0.0240974
0.0118455
0.0144596
0.0152372
0.12079
0.0622551
0.0224836
0.137275
0.137385
0.0317787
0.0248678
0.0227236
0.0558813
0.0883298
0.135767
0.136379
0.0236844
0.0226485
0.129576
0.0084862
0.00170242
0.000330448
0.120345
0.118634
0.0011406
0.00551101
0.0221512
0.000950411
0.000405999
0.00425573
0.121464
0.114855
0.118171
0.117904
0.00307959
0.0308306
0.00668213
0.000236143
0.022968
0.114189
0.117972
0.0273332
0.00667245
0.00360157
0.00330988
0.130505
0.0412981
0.132075
0.129597
0.130943
0.167947
0.0151891
0.0761173
0.00434293
0.00539208
0.000997231
0.112753
0.00672071
0.0360183
0.0124761
0.0265785
0.0249165
0.0247433
0.0345615
0.0208429
0.0216642
0.0220053
0.0177768
0.0247386
0.0270329
0.00883162
0.00907716
0.0019921
0.00352744
0.0215529
0.0189097
0.0165095
0.00446976
0.00514829
0.0302177
0.0319242
0.0212467
0.0201733
0.0211088
0.00225839
0.00621709
0.0148727
0.000991224
0.000344767
0.000532239
0.0167761
0.000667725
0.000864271
0.000350393
0.000530168
0.00864725
0.0011517
0.045369
0.0184761
0.0351227
0.0267954
0.00569446
0.00710074
0.0341034
0.032953
0.0717109
0.0190785
0.110825
0.0326116
0.0649103
0.000718036
0.00630456
0.132877
0.004411
0.0973901
0.080247
0.133074
0.132236
0.0311803
0.0111134
0.138334
0.123207
0.12425
0.0161657
0.0550087
0.0542768
0.132042
0.00440513
0.00512995
0.00340783
0.00572006
0.00625223
0.00568915
0.00978066
0.00436842
0.129844
0.0335975
0.00468882
0.00614778
0.00561489
0.00745941
0.0285474
0.0279357
0.0476661
0.110552
0.008609
0.000182277
0.137799
0.137658
0.0232988
0.0223388
0.029843
0.0286512
0.0189098
0.0797183
0.0240375
0.00879477
0.00141596
0.00782785
0.0360662
0.0321972
0.0995134
0.0870148
0.0028597
0.0030875
0.134214
0.03977
0.028261
0.0281728
0.0286427
0.00661943
0.0556461
0.137964
0.016632
0.0177631
0.0154614
0.136517
0.136857
0.0249942
0.0216604
0.00713734
0.0543799
0.0571644
0.0221104
0.0199392
0.0079568
0.0089737
0.135046
0.136261
0.0675962
0.150705
0.143892
0.138578
0.138404
0.0137343
0.110026
0.00766677
0.00490243
0.0517512
0.00808275
0.00644274
0.00673469
0.014876
0.100361
0.00872879
0.00981551
0.0237507
0.00536918
0.00567024
0.128745
0.00765745
0.0332649
0.0073994
0.060472
0.136832
0.136924
0.00211565
0.11472
0.00085237
0.0198413
0.0569078
0.0580504
0.0508109
0.0332428
0.0327969
0.0113857
0.0122244
0.0160784
0.0382096
0.0244981
0.228236
0.185035
0.000481793
0.0389404
0.0390355
0.0376235
0.0376612
0.0086646
0.00349138
0.0502295
0.0401368
0.0402927
0.0409012
0.0394849
0.0268477
0.0111585
0.114106
0.122013
0.125196
0.138027
0.138112
0.0250069
0.0347546
0.0248397
0.0264031
0.0277239
0.0993006
0.0927811
0.107232
0.0344318
0.0282278
0.0251228
0.112519
0.0250582
0.065131
0.0670252
0.0690794
0.0359321
0.0289406
0.0584305
0.0575666
0.104152
0.138416
0.111175
0.108999
0.1306
0.107436
0.0113143
0.0161393
0.0114577
0.119596
0.118107
0.128318
0.00823053
0.00948984
0.0643191
0.0374638
0.0353024
0.0220787
0.0201528
0.0470071
0.0472038
0.0484646
0.030559
0.0157984
0.0304851
0.0298182
0.0170468
0.0208824
0.136769
0.137158
0.136754
0.137154
0.0147308
0.0144649
0.114645
0.019185
0.0187337
0.0314606
0.0285155
0.028246
0.03198
0.03484
0.0343597
0.137832
0.136148
0.135589
0.0974903
0.0815653
0.0511089
0.136294
0.0177154
0.0156839
0.0119626
0.102334
0.275727
0.214168
0.240128
0.0496052
0.0479474
0.0870955
0.0345208
0.0337445
0.0305554
0.00144738
0.21416
0.0117083
0.040316
0.0441986
0.0426585
0.0409347
0.00253472
0.136064
0.136622
0.0106329
0.0292332
0.117306
0.138852
0.138903
0.106605
0.10611
0.000281609
0.0312145
0.0602589
0.0547283
0.0556661
0.0559932
0.000390565
0.113303
0.115788
0.111612
0.137236
0.136852
0.0309678
0.0275901
0.0292576
0.0165702
0.0272354
0.0427725
0.043242
0.0421544
0.0946092
0.000672667
0.109944
0.106939
0.0168077
0.00218668
0.104685
0.109861
0.122128
0.118198
0.0413064
0.0407732
0.0208255
0.133382
0.0349126
0.0339486
0.0357365
0.0354916
0.196735
0.186386
0.0373426
0.0363743
0.0350794
0.00824363
0.0103655
0.0107487
0.0122175
0.0132652
0.0264603
0.0160307
0.0394602
0.0385555
0.038929
0.11725
0.120038
0.00174221
0.0377564
0.0475575
0.0480736
0.0492465
0.036972
0.0412365
0.0576561
0.138453
0.0127216
0.0455046
0.0504741
0.0488598
0.122624
0.122177
0.0135159
0.13515
0.023521
0.0088392
0.0527752
0.054149
0.054883
0.0522989
0.0515606
0.0959874
0.101519
0.0312466
0.0296944
0.021291
0.0223646
0.028586
0.0255788
0.0167149
0.0134322
0.0157507
0.031742
0.0409454
0.0202755
0.00300492
0.106772
0.0327077
0.0323892
0.0335115
0.0111482
0.0195032
0.124863
0.123745
0.0838152
0.0843395
0.0835273
0.0155768
0.0466176
0.00630916
0.000957464
0.1388
0.0505578
0.0238015
0.0224859
0.0241767
0.0491967
0.0358473
0.000518946
0.140513
0.0505424
0.0767914
0.0196844
0.0255885
0.066155
0.0299738
0.0287176
0.0103378
0.0579474
0.0353643
0.00449699
0.113162
0.105035
0.0987445
0.0995019
0.0973192
0.00148261
0.00374591
0.0375146
0.0117277
0.0502781
0.0544455
0.0441813
0.0444256
0.0344744
0.0350419
0.0390371
0.0186006
0.0193341
0.112662
0.108578
0.138871
0.138804
0.0928917
0.0911732
0.00602861
0.0368816
0.0348447
0.0199277
0.0208697
0.0695499
0.067354
0.00427922
0.0188581
0.015372
0.0470797
0.0504179
0.120358
0.117735
0.09635
0.138506
0.138389
0.0380482
0.0372221
0.0435249
0.0428096
0.025175
0.0226314
0.104898
0.0184606
0.0199857
0.0442115
0.0454741
0.0462536
0.0456973
0.0493823
0.0482642
0.0838774
0.0834095
0.0821518
0.0655282
0.0660806
0.0665697
0.0419818
0.0423107
0.126602
0.134695
0.135292
0.0158467
0.00931618
0.129763
0.12736
0.0433448
0.0428342
0.0443078
0.0440595
0.0622545
0.136312
0.144711
0.00200287
0.0354186
0.0362894
0.0399554
0.117527
0.0363388
0.139075
0.140615
0.0731891
0.0343296
0.0357959
0.0927185
0.0939815
0.0900922
0.0890021
0.096306
0.0948605
0.00760541
0.00652693
0.0629215
0.0609274
0.139262
0.139203
0.139355
0.116209
0.0399092
0.116152
0.0578378
0.0625606
0.0727396
0.0697907
0.0128824
0.0417185
0.0407064
0.106515
0.107999
0.0279986
0.117978
0.0266881
0.0167214
0.138418
0.138224
0.102964
0.0645017
0.0629056
0.0632284
0.0637984
0.0140951
0.0156706
0.113026
0.0347911
0.036194
0.0439169
0.154658
0.166198
0.0467228
0.137927
0.137598
0.0249701
0.0281793
0.138516
0.060078
0.0614058
0.0607862
0.0359791
0.0365891
0.0612111
0.0651622
0.041443
0.0401983
0.134571
0.00362011
0.0479495
0.0484095
0.0470247
0.0466694
0.0344604
0.110862
0.106786
0.103028
0.0738789
0.0705584
0.0725323
0.121711
0.117171
0.112491
0.0694716
0.0706544
0.0701111
0.133392
0.13466
0.134164
0.0889784
0.0765647
0.0479684
0.0488128
0.0135185
0.0122423
0.0139196
0.116338
0.102465
0.108813
0.113893
0.0439401
0.138803
0.130724
0.128673
0.015968
0.0179793
0.0554104
0.0571251
0.0918733
0.0909721
0.0900383
0.121918
0.1243
0.117984
0.0746162
0.0842719
0.0853922
0.123969
0.124808
0.125843
0.043281
0.0416845
0.136902
0.137245
0.137428
0.0535906
0.0512856
0.0503293
0.129087
0.130115
0.0614563
0.0619635
0.00552291
0.0558022
0.0554323
0.0409855
0.0411422
0.0182733
0.0196036
0.0393341
0.0407065
0.040469
0.0713911
0.202129
0.256472
0.0297494
0.00315048
0.0680971
0.000787639
0.0874347
0.0883806
0.0391423
0.0135276
0.133093
0.138079
0.138156
0.122848
0.123871
0.0346128
0.0339254
0.138544
0.0764461
0.0761211
0.0048911
0.136355
0.137303
0.137693
0.0634323
0.0627055
0.131964
0.107347
0.105303
0.126932
0.123118
0.131354
0.131494
0.0371908
0.0374966
0.0854536
0.0874448
0.0111837
0.0966958
0.101497
0.180973
0.153203
0.0978043
0.0977951
0.118092
0.111691
0.0736718
0.0737261
0.155007
0.141763
0.141822
0.0323174
0.0316768
0.032263
0.0459787
0.0460101
0.0147309
0.135033
0.140822
0.127521
0.0592009
0.0560169
0.0770011
0.0767474
0.115413
0.115825
0.117167
0.0284278
0.030593
0.0793733
0.0802368
0.101412
0.103175
0.0348876
0.0383772
0.0602365
0.0593317
0.0213796
0.022008
0.0234755
0.107835
0.112269
0.106895
0.0261977
0.0542875
0.0534267
0.0536442
0.0372852
0.0376268
0.0365735
0.0434008
0.0451915
0.151438
0.0378449
0.0413075
0.0496783
0.0501063
0.0742051
0.0743195
0.075258
0.0798613
0.077493
0.0754034
0.0494785
0.0483753
0.0408816
0.0420499
0.0383753
0.0398575
0.040528
0.0482254
0.0510012
0.0117882
0.027395
0.0287402
0.0258562
0.0233875
0.0259219
0.000728396