/*--------------------------------*- C++ -*----------------------------------*\
  =========                 |
  \\      /  F ield         | OpenFOAM: The Open Source CFD Toolbox
   \\    /   O peration     | Website:  https://openfoam.org
    \\  /    A nd           | Version:  6
     \\/     M anipulation  |
\*---------------------------------------------------------------------------*/
FoamFile
{
    version     2.0;
    format      ascii;
    class       volScalarField;
    location    "1400";
    object      p;
}
// * * * * * * * * * * * * * * * * * * * * * * * * * * * * * * * * * * * * * //

dimensions      [0 2 -2 0 0 0 0];

internalField   nonuniform List<scalar> 
29874
(
2.94197
0.173612
0.129711
-2.97195
0.182165
-4.53867
-1.16957
0.690364
2.52401
0.541944
-2.41526
-0.039487
-2.01546
-0.280119
-2.16938
-4.36353
-2.95868
-3.27382
0.344984
-0.0424084
3.18766
-1.85098
1.17354
0.854903
3.78722
-0.698129
-2.11335
0.19394
0.454102
-2.69673
-2.53652
-3.66958
-0.600849
0.972235
2.81111
1.37592
2.7928
-1.78664
1.39074
-1.09574
0.958026
1.12982
1.38305
3.17878
-2.45018
1.71446
0.984219
-0.833162
-2.93317
4.18397
-0.36203
-2.47771
-4.11139
2.57381
-0.311665
-0.799081
-0.703851
0.818298
1.75579
-2.2795
-0.735025
2.13379
1.47147
6.1108
0.240659
0.938095
0.305445
1.12758
0.625012
0.555476
-2.03543
-1.55361
7.56455
0.481138
1.24979
-2.64017
-0.937794
-2.37926
4.52158
2.55408
-3.35044
-0.266261
0.972442
-1.58598
14.4535
12.2529
0.440418
0.243447
-1.77853
-0.99172
18.1502
1.12779
1.19188
-0.601038
0.149746
2.90914
0.532659
14.2716
19.5447
-0.282545
-0.349367
0.466554
0.908753
4.61813
6.32505
19.3833
17.5385
0.173838
0.685166
0.335882
17.8207
-1.61363
-1.76744
1.07429
0.979538
0.97962
1.97689
1.60932
24.2958
1.63762
1.31648
-3.45669
-0.0508903
-0.121856
-0.129944
3.29823
-1.23677
1.26181
1.62646
3.81529
0.689269
2.9559
2.52646
1.10981
0.72907
1.50499
0.99135
-0.181666
-1.69443
3.48287
0.987036
1.52226
-0.580263
5.54497
0.890839
2.85311
-1.27711
2.03003
0.541884
1.82639
-2.15414
-0.84458
-3.32779
-0.224396
-0.610232
1.11406
3.76903
-2.16747
-1.78072
-1.92904
-1.48341
4.3458
7.14824
0.852882
0.645647
0.957996
0.540943
3.31784
3.87129
1.02384
0.773429
0.629525
0.848054
15.6817
16.96
0.772993
0.517546
23.5719
3.79356
3.88073
23.3729
23.3795
-1.49546
3.27631
4.13352
-4.52434
0.397804
0.465618
-0.216376
0.890728
0.905232
-4.82431
3.36373
3.49016
3.22625
1.7317
1.41896
-0.492594
23.2278
23.3293
-1.60575
-5.53119
3.26942
2.77135
2.18808
2.69715
2.20426
-6.20546
2.11455
2.22921
2.02546
0.475278
5.02233
3.33873
-1.42433
1.41286
0.658022
0.478957
0.498042
0.710325
-0.950329
-4.62056
-0.382337
2.13934
0.766336
0.472714
-0.376943
-0.192245
-0.627356
0.747843
0.779281
0.723523
0.0023788
-0.52764
3.31755
3.45016
4.33125
-0.600573
0.384668
-0.615691
-1.80909
22.2309
21.5599
3.74332
2.74625
20.993
21.248
-10.2602
2.53206
-7.26064
16.0107
1.96777
-9.03994
18.1882
0.22074
20.611
17.0034
23.2109
-7.62368
17.1772
-3.8054
18.2522
16.8157
-3.95382
-5.21655
-6.86771
-7.16392
3.11361
3.24689
24.6316
20.4686
20.8445
-6.32114
-7.74534
-0.395761
2.81147
-6.02544
21.9844
3.98803
-0.624892
-1.66832
0.0935014
0.574426
2.19363
1.92527
3.07937
1.08964
0.69007
20.3643
20.1244
4.12766
2.72369
2.84921
-8.58848
-8.65783
16.9937
17.0069
-4.80678
-8.25321
-8.13927
-7.66956
17.7842
3.12153
19.0197
2.95386
3.03564
20.1877
2.13797
-4.87749
22.8955
-9.36138
-9.25013
-5.25322
-5.73341
-5.44374
17.4969
17.4754
-4.58861
3.47789
3.54888
-5.93694
-11.0359
20.1221
21.3336
3.84767
3.8726
4.1766
-0.63404
17.1908
16.9803
3.38431
2.78241
17.2918
17.2046
-9.20789
-5.66198
2.85268
2.38283
2.39439
2.31758
21.016
-5.12815
21.3928
21.0577
21.154
21.2516
2.07904
2.42437
-10.0757
2.82846
1.94598
-3.10356
-9.39754
-8.70218
-8.70713
0.432473
20.6479
20.2888
8.43749
24.6497
-4.03656
20.8384
-6.5021
21.2314
21.2893
2.7211
2.79435
2.50835
5.99672
20.0639
20.3444
19.4499
20.0172
0.824633
0.667443
19.6452
18.4815
18.3132
18.7013
17.9832
21.1799
21.5687
3.33739
3.1384
3.18175
2.99059
-2.50825
2.14168
2.03799
1.81576
-7.26256
-8.41149
21.9467
-5.93847
-5.27216
-9.98792
-9.48267
-10.0863
-10.1484
2.7934
-6.39914
-6.9201
-6.38354
4.50825
4.48765
4.00002
21.2405
20.9329
20.8155
20.7398
15.5722
16.8367
16.0489
15.6956
1.671
17.482
17.1489
19.0596
19.5865
21.0105
21.2526
21.5299
16.6773
17.7418
15.7102
16.6969
17.6807
16.2481
-1.2456
-0.731799
-5.13507
-5.88186
-6.00908
-5.43169
17.426
-4.06141
-3.81754
16.5121
16.9465
18.909
18.1754
18.0453
17.6418
19.6286
19.6748
1.58549
4.23692
4.31242
4.5739
3.553
19.873
19.6806
20.6014
15.1314
14.5699
15.1284
-6.50056
-6.07517
-6.56278
-6.07482
-6.62082
-5.53625
-7.15927
-6.45548
17.6053
17.3165
17.7116
2.5982
1.06741
0.952575
1.01465
0.894296
0.735771
11.5201
3.8338
3.70231
3.61732
19.305
19.5996
18.7664
-5.63824
19.6446
18.5356
18.8605
18.8784
1.06527
21.1712
21.5138
21.3434
20.7556
-2.09483
24.5944
-4.90382
-2.42394
23.5687
-0.562481
-2.46077
0.540016
0.614792
0.628326
-2.79998
-0.851614
2.53904
2.2271
-0.3338
5.5128
6.07215
4.20791
4.56224
-1.91404
1.42131
1.53648
10.5876
0.966527
1.04999
22.5422
0.54741
-4.25844
23.8772
-0.301178
0.916545
-1.20643
10.4491
-1.76236
-1.58653
-1.78042
1.0581
0.557404
-1.99168
-2.14946
-2.13841
-2.02971
3.58634
3.69092
0.294315
0.387945
-0.466123
4.96386
2.76724
2.8515
-0.216717
-0.279435
24.0352
22.3528
-1.31934
-1.27957
-1.91546
-0.154414
0.160985
3.18085
-3.84564
0.719064
0.816325
-0.174527
-7.49835
-8.20238
-6.62362
9.16984
0.59965
-4.27779
-2.41311
-0.394922
-0.393582
-0.314019
-0.708135
22.45
-3.02625
-2.725
13.9545
13.1658
21.5574
-4.05106
-0.776093
-6.77036
-4.49229
-1.25173
-0.978448
1.14967
13.7907
-4.59234
-5.26204
7.44002
8.42249
-0.518868
2.65663
2.64466
-0.583599
0.596846
1.02778
0.847004
1.06225
-4.98179
-5.59156
17.6259
17.9688
2.34619
1.94469
3.86012
4.24477
24.1034
0.184648
-4.08578
1.97128
2.13126
2.33844
0.543817
0.606039
1.49776
1.51198
1.38935
18.6787
19.1453
18.7474
1.85026
1.89055
1.75048
2.07304
-5.68209
-5.13322
-4.91167
-0.444167
20.803
3.83201
3.65374
3.37873
3.71938
18.0839
19.0722
9.23265
10.2089
3.18163
0.00992036
2.8018
2.35659
-9.05532
-9.59317
12.3276
11.5407
10.7364
16.3842
15.7764
1.72306
1.81124
1.98526
-2.47005
1.40937
1.08559
4.3883
5.15947
4.7917
-0.825819
-0.988293
6.02668
6.07672
6.70859
0.828762
-3.35303
-3.20581
-3.00416
24.6102
22.5357
0.123024
0.264049
0.563824
18.906
19.116
-0.904026
-1.356
-0.549716
-24.3367
-23.4173
6.43249
-10.4254
2.90901
18.7387
3.13607
21.6079
18.8212
1.51918
5.79775
5.14874
-11.7745
3.13882
3.0391
3.74233
3.89025
5.82944
-7.78836
-2.97232
17.4438
16.4305
3.21244
2.86817
-12.0276
-12.1215
-0.126156
-12.6568
23.6633
22.3988
20.6554
20.9
0.371996
-3.97954
-3.54145
12.9022
17.6412
-3.69862
22.918
-2.12573
18.9534
5.92804
16.3026
16.5218
-0.604387
-8.87795
-11.4718
15.8896
16.2567
-0.0693616
-13.6601
1.83485
2.45312
2.87047
2.64749
-8.60065
-2.68414
2.61007
0.696282
-1.05383
-1.28416
-11.4469
-11.1763
-3.74507
-3.39801
-15.1451
3.53553
3.34997
-18.5392
3.27254
-7.78359
-35.8697
3.23858
1.15737
-6.70225
-35.5036
-28.6758
3.52484
-15.8917
-19.2926
18.5443
5.92673
6.16186
-2.76667
18.0554
17.8608
3.13321
2.26963
14.5962
21.8194
21.5937
-4.26991
5.27013
5.06535
-9.5883
-9.30805
-12.5011
-12.0655
-3.38311
-0.373166
15.5268
15.4867
-5.99242
-1.25783
-5.10211
0.24386
0.0120339
15.2388
14.2241
-8.11156
2.23106
-8.49031
-7.18222
3.40774
16.5433
16.6938
4.38811
-5.27217
-11.4299
8.56719
-13.7244
-11.05
-11.0994
15.2583
15.3058
-15.067
-25.8157
-12.8347
14.6501
-18.4385
5.41176
3.12568
-4.65058
-5.82123
4.24639
17.9506
14.7475
1.90897
-24.956
-5.05483
-1.22308
1.86959
4.13526
4.36773
-10.5064
-10.3628
3.56209
15.9277
2.25907
-0.291596
-2.61075
6.42796
-0.304432
22.1652
18.823
-11.3873
-7.4613
-2.90267
-2.07779
14.4054
13.4572
-1.10732
-1.90007
1.4911
-12.6287
-12.6703
-12.0212
-12.0367
0.547445
-0.553509
-0.742126
2.4454
-4.73936
-3.69888
-6.02777
8.05578
7.2577
6.69202
-2.60855
-3.32782
-13.5176
-13.7617
4.23316
-1.94959
-1.80724
21.4009
21.68
21.4407
-11.1668
6.4493
4.23688
7.5344
5.31835
15.0079
14.9301
-9.87302
-4.09823
3.24174
-3.16342
-11.5745
-12.4549
5.87118
-4.44895
-11.4945
2.95841
-7.57121
-8.13359
-9.57441
-10.1437
-16.938
14.3069
15.2916
15.8646
2.64735
-10.6635
2.69615
2.16706
5.59766
6.64259
-6.69497
-6.7491
-10.9258
2.8286
3.04227
2.38692
2.25799
2.48705
-4.31004
12.7681
-24.2915
0.212722
2.22663
2.41416
-7.59322
-7.70257
1.17533
16.725
-10.6968
-11.6473
-11.2562
5.06742
18.883
4.10218
1.5503
-22.9105
15.2686
13.2694
3.99105
3.89327
4.08324
1.01987
-2.21761
-20.6008
-0.472816
0.414326
-6.54905
-11.3168
-11.1773
-2.49587
-17.3674
-1.54794
-11.5354
-12.9053
16.8085
16.4727
23.8865
-11.1907
-10.9476
-11.1323
22.0152
14.9115
14.6949
3.13807
-11.1615
-9.80629
-10.6317
3.95355
-4.52585
5.98765
20.8101
-11.2068
3.11584
-0.531338
4.15613
3.75734
1.68395
1.8472
2.16455
-11.7728
20.5412
0.868508
1.42549
23.5915
2.49286
-3.87173
1.13513
1.0531
-11.7668
12.2145
-0.158966
-0.252377
17.6186
-4.65889
-7.02243
16.2807
-6.4752
-5.91516
1.37712
4.75508
17.175
17.0321
17.5005
15.6294
2.93756
1.89762
0.537637
0.673881
-3.70212
-4.35135
-9.50981
-8.34413
-9.38998
16.2383
16.4925
18.7354
0.518385
0.800783
-11.7531
-11.8912
-8.38414
-8.74927
-5.22318
-4.66239
-6.09556
-4.58724
-4.01033
3.56611
3.10517
15.5551
16.1025
-11.1126
22.2589
17.5774
16.9438
-12.2895
-11.6871
-11.0191
-12.8245
4.24155
3.30078
3.4978
3.492
3.39036
-8.3638
2.80007
3.17997
3.42371
-4.33425
-4.14083
-4.58943
-4.06009
2.2896
-11.9162
-11.2958
3.63257
17.304
5.26452
5.8839
5.53922
17.0266
15.2232
15.2508
16.4448
16.7102
-0.779333
-0.319972
-0.876615
-2.86041
-2.28881
-2.55007
-2.34081
18.6682
18.9238
-11.8305
-11.6371
-11.4364
-11.5413
-3.35779
-2.37738
-3.11889
3.08331
-3.27308
4.46072
15.3381
-9.88488
18.4256
-11.228
16.631
16.6126
3.29528
3.34291
3.37714
1.7811
1.63096
2.14731
21.3467
1.91353
1.80265
2.002
1.81968
1.8821
1.8151
1.59265
-4.86739
-4.3814
6.04758
23.4129
4.02947
-7.17726
4.91657
15.3224
-8.26718
3.6823
-18.5435
-1.86532
-1.78609
-14.5916
15.7298
15.6175
15.6674
2.55055
2.3157
2.78855
3.07552
2.60607
1.18891
1.04181
1.02393
15.9573
5.43265
4.9415
-10.1984
-9.39756
1.97208
-11.0225
-11.8202
-11.1643
-2.74197
-3.41358
-2.69807
21.6842
-18.1806
23.0725
3.47595
2.80175
3.23024
1.61862
21.7932
17.3609
17.5647
3.41843
17.0889
16.5871
16.274
16.5552
0.49955
1.06727
13.9212
13.7938
-11.0465
-11.1316
-0.369761
-3.34455
-8.06029
-7.07751
23.3771
4.42725
3.99038
4.51819
1.23966
-12.8757
-13.1443
-12.3847
-6.43375
-10.0357
-9.92117
1.18802
0.764437
5.48466
3.46425
3.6056
3.34563
3.35674
3.37552
3.3026
21.7591
3.36938
2.75843
2.84181
2.55984
2.86684
23.5809
18.6176
-1.22588
-1.48815
3.23651
3.31823
3.33202
3.18143
3.11357
2.5685
15.5265
15.5715
3.3909
20.721
5.02925
4.50216
-10.0305
-10.6151
-11.0267
20.0619
4.15321
3.82372
23.8059
21.0776
20.9474
8.49922
8.25016
8.41931
-3.43309
-10.1292
-9.10098
4.04633
3.62017
16.256
16.3658
16.605
0.95773
0.400594
15.6426
22.3562
5.77637
-9.70108
-9.68848
-8.72305
21.7668
21.8403
3.93304
3.98244
3.55298
3.21639
3.03218
3.17722
14.7897
23.846
0.857835
20.1406
5.23592
5.24224
-16.0911
-16.9
17.6262
17.5365
1.44994
0.838382
0.492394
-0.133541
-0.128292
0.683661
-9.06365
-8.4176
-2.13808
21.8333
24.1405
-11.9414
16.5875
16.2105
-19.6486
-19.555
15.4763
-11.4037
-12.237
18.3386
1.85189
2.1211
13.3699
13.6657
-15.5555
-11.7715
21.4157
6.70991
6.84325
-1.27841
-1.50578
-9.52874
-9.34146
24.1519
24.1439
-11.4729
4.48082
4.13523
24.3387
4.34601
4.79319
12.8547
-13.1346
-13.6982
-12.9104
5.08441
3.27167
3.61421
3.22621
3.32102
3.49291
-11.3106
22.9426
3.05627
3.39019
3.44985
3.37004
1.72337
1.32042
2.90044
3.46673
0.0641812
-0.0651926
7.64829
3.13569
3.28447
20.9968
21.3984
-10.4731
-10.9211
-11.1609
-11.0212
16.7547
-11.5066
3.02252
3.24953
-1.79251
16.436
16.3566
21.3133
21.7118
21.3178
21.2589
3.11303
12.7887
12.5434
12.3329
-4.1031
-3.53044
-3.11241
-2.71151
15.8031
15.0367
15.9863
16.4279
-6.90435
-7.28492
-7.55674
22.715
22.9923
18.2719
18.1614
15.2715
15.5323
15.4316
15.4242
-17.1131
-12.047
0.461012
0.327162
-5.30368
-9.37817
3.98988
4.29733
-9.88186
-9.76579
-9.55681
-8.60728
4.80065
4.4631
1.17496
1.13846
2.20484
2.3419
16.4455
16.7305
16.3163
15.9309
3.43321
3.37169
3.20812
3.39298
-2.10565
21.348
2.37351
2.638
2.87513
2.71614
6.40688
-10.4577
-9.89681
-10.4506
-5.97897
-7.12472
-6.79452
-7.09433
15.5971
15.1779
15.5371
-5.8147
4.43053
-9.21403
-7.64912
-9.69283
-9.69982
-9.13828
16.6233
16.4593
16.6419
-8.3419
-11.7192
-11.5983
-11.6101
-11.5745
-10.1871
-9.67917
-10.1487
16.4815
16.2239
16.0432
-2.61934
-2.06153
-0.823997
-1.50794
4.39583
4.33485
4.55188
2.01801
2.28112
1.77751
3.94759
3.92178
3.71039
3.44199
3.4255
-11.2927
-11.0678
-11.3085
-11.3622
-11.5748
-9.64475
-8.80998
16.6992
16.3986
16.283
-4.22267
-4.88716
-4.9579
17.9165
-5.08877
-5.29738
-8.0108
-8.57615
19.8472
19.2107
14.7284
14.8883
17.68
17.3726
2.04102
1.8459
-15.1217
-8.56742
-7.75849
-8.39778
-12.6744
-13.1939
-15.1072
-5.4961
-6.09055
-6.61618
-7.13065
-7.60832
2.96852
2.49642
3.11454
3.13812
-24.19
-23.7864
-11.1832
-11.2483
-10.3024
-11.1626
-8.28831
0.92229
3.56409
-23.3925
14.3138
14.6034
3.47633
3.43036
3.29463
19.9911
19.9719
19.8344
-8.65268
-7.63966
2.45492
2.15552
2.41755
3.26801
3.07259
3.05351
3.09451
2.13656
2.521
2.47517
-7.06321
-7.25872
16.2183
16.3622
16.5382
2.56936
1.85821
3.24463
3.42825
3.69392
3.01874
-8.87888
-8.6984
-8.88916
-8.36162
-11.528
16.6989
16.7019
-0.466133
-1.19931
-1.55554
-0.986771
18.0431
17.8495
17.5927
17.9232
5.49175
5.63496
5.61258
-2.75868
-2.02691
-1.24717
-1.2925
-1.05934
-1.32632
-2.04033
16.214
17.3092
16.6082
16.9305
18.9272
-6.77272
-7.18477
-6.65703
14.5284
14.277
13.9999
16.3623
16.7718
-8.24992
-9.20371
-8.65054
-8.47706
-5.73654
-5.23226
2.77193
2.38154
2.67773
2.55987
3.3585
3.76866
3.07842
5.07197
4.64718
2.47531
2.80303
15.6805
15.9598
15.7938
1.01862
0.835374
2.20233
2.30347
2.29118
2.43825
14.8243
15.0929
15.1242
-7.91019
-8.25851
-6.95002
-8.0957
3.65227
3.67057
3.50689
-7.77407
-7.44067
-8.19078
17.589
17.6135
15.9936
16.0298
15.7787
17.0006
16.6897
16.7245
16.6574
17.6324
17.7038
17.5207
3.07048
3.2561
3.08398
2.83015
-13.808
16.7093
16.4282
16.8081
16.6114
-11.8588
-11.8441
-11.7448
-11.6002
-6.0224
-5.51205
-6.39734
-6.84054
16.8805
16.8878
16.2804
22.9295
22.9342
22.9945
0.511268
2.56559
2.14046
2.40012
13.5526
5.05937
4.7791
3.87719
-8.8781
-11.816
-1.64706
-10.6125
-10.7499
-10.5679
-10.0809
-11.9492
-11.9041
3.2347
3.2242
2.87598
16.7267
16.5295
16.4426
3.45077
3.33331
3.32729
3.72887
21.6652
21.756
21.435
21.7205
-6.01226
-5.79306
-5.58893
3.72652
3.57717
3.7328
5.24494
4.44686
4.58514
4.53622
-7.67936
-7.85854
-7.38894
-12.283
-12.3597
-12.3041
5.24276
15.263
14.7427
14.6167
14.8894
-4.96657
-5.38746
2.88654
2.63144
3.76309
-0.224737
-11.3581
-11.1995
-10.8132
1.32969
2.19966
0.963477
-9.54735
-9.13675
-8.80812
-8.51703
-9.93551
-10.184
-12.7946
-12.5717
-11.966
0.964407
0.779895
-0.0767876
2.39654
2.32708
2.32049
-8.83728
-8.53422
-8.84784
-8.60706
-26.7392
-25.8563
-3.48858
-10.7858
17.6371
21.2722
3.71118
3.3362
3.75162
20.294
-26.3919
-1.94938
-1.4323
-1.94475
7.75234
7.71669
-2.25334
21.7757
1.82566
1.68761
2.03087
1.85303
1.81325
1.45576
1.5125
-6.43822
-7.55175
-6.82458
1.9327
2.52599
3.06485
2.88952
2.62733
2.88272
-3.47962
-3.76847
-3.34214
3.4325
3.28468
3.19085
3.02674
-13.4827
-12.8542
-10.7661
-10.2204
-2.22302
-0.00940444
-0.429789
0.0531482
-0.0120726
-6.61677
-6.22665
-10.3385
-10.0376
-10.5648
-10.5818
-2.08833
-11.8886
-11.902
4.19092
3.27012
3.46677
3.63568
3.42851
17.5308
17.8401
17.7288
-5.46103
-5.22953
-11.0569
-11.4217
-11.3444
-3.50677
-3.01272
-2.48932
-1.73008
2.75937
2.34645
-11.7311
-13.248
-11.6947
3.38948
3.36022
3.53116
17.1383
16.6736
16.4579
16.8918
16.4888
16.561
1.69804
-5.02817
-5.81413
-5.97217
-5.98993
-3.84847
-4.17219
16.7651
17.1045
-3.84888
-2.90224
-2.45094
-2.56537
4.58264
3.95756
4.44216
4.53668
-2.38434
5.53592
5.45086
-9.44517
-9.86839
-9.84872
-9.93876
-10.4161
-10.6586
1.23435
2.7869
3.11526
2.95062
-1.06042
-1.70263
-1.66684
-1.6507
22.1319
17.3079
17.8963
-15.6826
-16.878
-9.7143
-9.04827
-9.51725
-8.71938
-21.6117
-4.67138
4.26944
4.51951
-18.6945
3.15886
3.00551
-9.2417
4.17231
4.25793
3.60953
3.68638
20.4594
20.7374
1.81514
-10.6059
-9.97237
-10.5633
3.98743
-6.10354
-6.83871
-6.60164
-5.50993
-6.17284
-4.64268
-5.23409
2.36678
2.1435
17.649
-10.4602
-10.1061
-9.58417
-10.5226
16.2241
15.7858
16.5431
16.6303
3.32029
2.96211
2.72159
3.15936
3.10818
20.5573
-5.21626
-4.95523
-5.10007
-4.23122
-7.70121
-8.42406
-8.56549
-8.26791
1.51537
1.44885
14.4074
14.1083
14.4552
-5.78592
-5.70037
-11.6323
-3.80899
-4.20015
-3.18502
-2.79165
-0.565853
-1.03263
21.6956
17.7383
-6.71293
-6.19019
-6.5059
-6.83402
16.6652
16.8337
16.4909
21.222
3.47813
3.65372
3.26751
1.31413
1.26413
3.15213
-5.9664
-1.78709
-0.463271
-1.02475
3.80178
3.52013
-4.35275
-3.54114
-4.69286
-13.0839
-12.0266
-11.98
-12.0375
-0.978657
0.0569044
-0.916619
2.96701
2.76687
3.07033
2.50122
2.75001
20.5144
20.9029
20.8965
21.1812
23.3777
-3.62044
-2.86122
-3.60085
2.25277
2.59813
2.85817
22.2976
23.516
4.77276
-11.3634
-11.4825
0.771809
0.905114
-11.0017
-11.1159
-10.8007
3.27654
3.29783
3.46749
3.35661
2.47144
-1.06388
-0.715346
0.0271667
0.0723373
2.24493
1.93307
14.6939
14.906
3.627
3.69391
3.72665
3.58246
-13.5109
-12.5032
-13.5695
-11.5772
-11.3932
-11.5111
-10.7582
-8.28946
-7.59273
-8.64819
-8.80471
-15.1661
-11.9202
-11.9815
-11.7725
19.2954
20.8646
20.9712
20.3073
20.6318
-9.33386
-9.45827
-8.9722
4.26575
4.11811
4.29504
1.58207
1.62806
-2.54222
-3.29105
-3.02828
-3.72111
1.17065
0.586526
2.09494
1.69566
-0.549538
-1.22992
-0.597209
-0.479956
3.07925
3.15866
3.30264
2.8901
-4.53974
-4.69774
-4.5207
-20.9504
17.4404
17.686
-6.974
-7.72186
-7.60693
-7.21693
-9.46483
1.53966
0.973533
1.76419
1.44709
6.11784
4.93607
5.72899
5.27908
4.85449
-11.0952
-11.0794
-10.6025
-19.2441
20.3818
20.4219
3.82849
3.83615
3.36849
4.94504
5.13875
4.89334
24.7166
-11.8917
-12.3388
-12.4514
2.05503
-11.7737
-11.9144
-11.9215
18.1697
18.0716
17.9432
-11.8751
-1.8347
-1.19581
-0.595674
-0.132718
22.5062
-10.81
-10.6329
-9.69214
-11.2905
3.60921
3.44288
3.49748
16.761
16.7098
-10.8667
-10.8614
21.6872
0.827434
-0.00636503
0.971442
1.56677
-8.45981
-7.81619
-7.65421
17.1267
1.49287
1.51603
2.92582
3.04587
2.65353
2.87214
19.7341
20.2211
20.019
20.4859
17.1687
16.2053
-7.63762
-2.64062
-1.91375
-2.24639
-2.34644
16.9391
17.222
16.7018
16.643
-6.30707
-6.3664
-8.63559
-8.02175
-8.52494
-8.64502
7.08935
-7.56652
-7.94596
-7.8536
-8.22502
2.44337
3.21785
3.32951
-8.98367
-8.49127
15.5786
15.4183
3.33518
16.8289
16.864
0.590167
4.75113
2.27729
2.3022
2.56448
2.4036
-5.72706
0.184355
-17.7139
24.004
24.011
19.9187
-16.2658
24.0893
24.0217
23.9921
-20.4757
-0.315418
-14.6237
-0.0978426
23.8958
22.8171
23.4331
23.626
-1.82251
-0.0384221
-0.0135211
0.055022
24.2254
-4.50601
-3.88771
6.25596
7.13318
-4.02517
-4.50286
-1.04247
-0.113354
20.2211
24.2234
23.6196
-0.494601
22.2391
23.0589
23.45
22.5999
20.9414
6.77691
1.82381
-16.2861
18.0686
20.4245
23.4018
0.403651
24.0152
23.9998
23.9937
-1.92729
23.8741
-4.15841
-4.58286
23.668
-4.11499
23.7568
-12.0408
-12.5193
22.0885
19.9468
20.9212
0.986133
-2.87052
22.0384
0.984491
0.76455
-16.3681
20.3993
20.812
0.426909
-0.51696
0.576297
0.808986
-19.2842
-19.8113
7.32349
-25.9817
24.4332
24.5907
0.489654
0.259488
23.4959
22.3145
-19.5004
22.2094
23.7543
21.7107
9.79585
11.3819
10.6709
-6.81018
21.7478
4.38481
24.3861
24.6978
22.2053
8.43255
7.77349
19.4538
24.3933
22.8793
22.9419
0.843792
-8.37627
5.85853
6.78578
6.16232
-3.57845
20.2177
-1.37963
24.502
24.4373
24.5129
6.98416
20.1973
22.1336
20.3686
18.2525
18.199
17.9837
22.1678
23.2793
23.2248
22.8573
23.2561
23.0272
18.5764
24.125
24.1247
19.922
18.9648
20.387
23.0989
23.5137
23.4966
23.4313
16.4391
16.5025
22.7379
22.9129
22.9734
24.5318
-27.8773
23.676
20.8879
24.6621
24.6932
23.1697
23.3005
23.1509
23.6271
23.5841
22.2083
22.5554
1.67864
-21.7605
-11.4087
22.8761
-27.7669
-26.6772
-13.2184
22.1375
2.88935
21.2378
-0.615492
22.2838
4.12606
22.9138
24.294
1.3801
24.5228
0.364548
0.0543413
1.9046
2.18587
19.7182
23.9605
-2.73624
0.794895
1.06934
21.5738
-12.2911
-12.3928
2.67976
23.9405
20.551
24.5824
24.4178
24.387
24.3745
24.0727
23.6396
3.48077
22.3948
23.6384
23.5828
20.5854
20.4545
22.7242
22.7361
-2.61111
11.0768
24.2645
24.608
1.60946
1.63894
22.5359
22.4768
21.0824
21.1179
18.3872
1.45241
-14.8197
20.0919
20.7781
20.0251
-1.07591
-1.02064
-0.674149
-0.167316
22.9527
22.7803
1.95196
-13.2067
20.6233
17.8959
17.5204
23.4005
-1.36335
0.226413
20.0935
20.1911
21.5772
-2.9772
-2.79032
17.5041
17.5955
23.1549
-5.43966
-6.52229
17.0458
17.2017
19.5255
19.5996
2.12585
1.82358
-0.33206
-3.47278
-3.98936
0.437225
0.376987
21.9386
-0.75895
22.886
17.5283
-2.78459
22.551
18.325
18.6125
-22.8666
-0.463196
21.6959
21.8396
21.0359
21.9245
21.9561
7.17732
22.213
22.3489
22.5729
-0.890188
2.37498
2.26464
23.303
4.36179
22.6637
-21.0085
-2.48724
-1.9465
0.049253
22.1733
22.2401
21.0607
-24.1475
19.6349
18.4361
22.0743
-3.39494
-3.32756
22.1352
21.801
21.875
21.9303
21.9831
-25.5456
24.2777
-5.65507
21.805
18.3074
18.1918
18.4136
22.8171
21.8556
-1.1132
7.34901
6.78128
0.0599419
0.14412
-18.1966
22.1539
-18.2873
18.4999
18.4693
7.96309
8.71019
7.79435
-3.86187
-3.63928
-18.2055
-0.391176
18.6883
1.38387
1.4874
1.61006
18.7664
22.3131
-1.87473
-2.46142
-0.269906
-2.10996
0.734339
0.310641
1.71088
-3.5605
19.1022
-8.81979
-7.15944
1.34165
0.98507
2.31147
22.2515
22.0586
-0.558382
-13.7676
22.0734
17.8227
18.06
17.2609
17.0475
16.9818
-10.8646
23.5104
22.5896
22.6143
18.5061
20.167
1.80208
1.71404
2.17379
1.87114
23.5494
23.5222
-2.4837
20.3463
20.301
19.9503
19.8968
19.4646
20.9545
20.8205
20.5543
1.00823
1.1151
1.27768
4.66146
1.86452
0.55893
3.4742
-6.7602
-6.53221
23.8192
9.3314
-4.86621
-3.86484
-4.26202
-11.1044
-10.7287
3.47362
19.5794
19.0887
19.103
24.5119
-0.0147637
21.0974
-10.6125
-10.8615
-10.957
-10.718
24.1923
3.08039
2.81636
24.0511
17.8304
-4.94016
0.670639
0.773503
-0.536024
-0.456863
24.654
17.7384
-6.03564
-6.51154
-6.29084
-7.15848
24.3601
-1.88592
-2.48879
-1.88763
0.709378
0.675244
-3.09316
18.8068
18.6736
-0.715896
19.4664
-8.58336
-8.33773
-8.786
0.499892
23.0177
-0.852647
-0.432447
23.429
23.3527
2.02348
1.66261
7.8555
9.11595
17.3285
17.3096
23.3014
-7.67453
18.0582
17.9959
17.7767
17.8465
0.691377
-1.25151
-9.45462
-9.91087
-10.4508
23.8789
23.8758
-5.96317
-6.16866
-6.10909
-10.346
-8.2409
-12.8579
-13.2693
17.4506
-4.72957
-4.47977
24.0425
16.7277
17.1598
17.0686
16.6815
18.4299
18.5531
-1.59898
-2.54118
23.246
-4.35873
-4.74885
-5.03979
1.64768
1.0876
23.0502
0.679122
21.8844
22.6463
-3.81037
-3.74726
-3.11136
-8.48744
-7.99019
14.8765
14.2122
18.8145
18.579
17.8892
18.5152
18.4073
18.915
19.3846
19.1934
18.9659
18.8287
17.1331
21.1245
22.4186
10.863
-12.4554
-12.6154
-12.2518
23.6178
21.2171
3.5667
3.29803
2.10157
2.19311
1.98978
20.2167
-11.0432
-3.61077
23.5311
-0.0280564
-4.98022
16.6496
16.2954
16.2783
-0.595015
22.1812
24.6847
-6.41239
-3.20708
-0.5803
19.3238
19.4604
0.817045
-13.5835
-14.0416
21.9133
-5.19111
-10.0066
22.7764
-0.848281
-1.41916
3.39855
3.48852
-0.638977
20.3916
-17.1387
18.1764
21.3992
20.385
19.9875
0.746199
0.407342
18.7797
18.8237
18.4915
23.2727
23.2469
0.205163
-0.504519
0.931594
0.960318
3.6893
3.44074
24.4154
17.1949
17.3506
23.1318
23.0995
1.95602
1.83886
-5.17757
-3.27348
-3.21421
-0.212465
-0.528878
0.76405
0.578879
12.542
0.806925
0.809199
-10.5052
-10.3021
17.1531
17.2191
-6.84877
-6.44913
0.459217
-18.0978
-17.4191
17.5701
17.3748
17.2858
17.2262
-6.12777
-6.4866
2.1664
2.05026
1.91269
1.48756
2.09536
2.34499
21.5086
21.5538
1.44475
1.67381
1.54727
22.4009
21.4229
6.52865
7.48247
21.153
17.0229
16.9975
16.886
0.169282
-6.65672
-5.56631
23.3394
18.9396
18.8059
-10.2614
0.680227
22.1294
-1.57665
-1.46123
-3.48896
21.6538
21.8397
4.24685
4.35902
4.7379
4.74964
3.24335
3.17149
-3.43111
-3.49142
-0.166698
-0.36829
0.660455
0.622232
0.651971
4.72524
-8.30063
-1.84115
16.8293
17.0721
15.5804
16.5639
17.8526
18.1612
18.1624
3.26574
3.17328
18.2979
-3.61646
-13.7201
19.8189
1.18198
1.26979
5.74994
0.792217
-0.360124
0.313986
0.493413
16.4604
16.6714
-0.728607
-10.6614
-10.0685
17.3674
2.72285
2.09136
-6.09933
0.600214
0.650942
17.0838
-13.3055
0.442353
-1.55617
-0.448887
-0.261667
18.0308
17.9087
19.4825
18.9122
17.771
18.1874
4.50409
22.9504
16.7939
16.8665
16.8756
-6.97813
22.0132
-7.29315
-7.75829
-9.82777
1.75932
1.63818
1.91518
3.2238
-5.43694
-6.24231
2.50546
2.99456
2.7699
1.57372
1.30152
1.25491
0.0537344
-0.071282
16.9731
16.8978
21.0535
21.196
21.0783
0.996059
0.920776
1.436
1.52187
-13.1153
-0.675373
5.38048
6.34906
-6.08764
-6.1978
-9.23497
-9.66574
3.02647
2.98176
2.90115
8.83441
8.14978
9.49859
-0.299529
-0.322933
-0.138128
1.48906
1.79021
1.50667
16.0944
16.8259
2.50866
2.37889
2.12154
-10.6364
-10.3019
-10.7069
1.49466
1.41164
-10.954
-11.1955
-5.40224
-7.23202
-7.17173
17.4873
17.4313
-18.2679
-17.6381
17.4654
17.1602
17.0864
3.00476
-2.82697
-0.292244
16.4985
23.9222
0.430604
23.0028
2.66753
2.74149
-9.88136
21.7193
2.7169
1.37637
1.24928
2.95554
2.89659
16.7231
16.8859
0.658264
5.21455
5.07205
-5.24762
4.26441
4.01591
3.75631
0.175579
-0.221621
6.02119
3.49433
3.50126
5.16443
5.49399
0.997096
1.30177
18.4895
18.441
2.83374
3.09471
-24.383
3.8657
4.03826
-4.2551
-5.38563
3.31958
3.29387
5.4155
5.72266
4.11484
3.99558
-2.28364
-2.45592
-2.64857
18.2226
18.3936
18.498
17.2396
17.3878
21.6273
-1.50749
-1.40381
8.05853
-5.35127
-5.48312
1.31178
1.0961
-4.84099
-3.86658
-4.99371
-8.39165
-8.78308
1.46472
1.5997
-0.368865
-0.132611
17.8103
17.0158
-10.5306
-10.2555
-8.38848
-8.73622
-8.92527
-7.50502
-7.02308
-8.49903
21.2876
-4.86085
-4.63917
-4.74079
18.3232
18.3404
18.7203
16.1184
15.7043
-0.704699
20.0169
19.9681
16.645
16.5727
0.94927
1.11519
1.20122
3.4609
3.00884
2.98748
16.5007
16.6872
21.612
21.4308
18.279
17.8765
17.9031
-3.15435
-3.61681
-6.68942
-14.5142
-14.2145
20.3475
20.3153
20.6309
23.5821
3.96671
4.4215
4.91065
-0.307098
-0.262729
3.46331
17.8192
18.4343
17.9867
18.5393
17.6757
16.8444
17.542
18.1417
1.24528
1.22011
-5.84384
-5.31712
-5.79413
-3.25719
-2.98121
-22.2645
-2.29129
-2.51132
-9.3853
-1.90281
20.456
20.4739
-3.88876
-3.51445
-3.51381
1.32604
1.26374
1.08375
1.10324
0.67167
19.0966
2.06591
2.49783
-0.195279
-0.0673145
-0.183487
-14.4168
-13.8146
-12.3169
22.9972
22.8494
-16.0743
-15.5035
0.693224
1.3178
20.9404
21.0352
20.4449
20.9702
-0.638021
-0.609274
-3.88461
-4.35521
-0.0947518
-0.338605
-0.61383
17.2164
17.2377
15.832
0.785059
0.71403
0.74741
-2.94111
-4.78713
-4.62001
-5.34338
0.923705
1.87067
2.55218
2.075
0.913999
0.821684
0.748696
3.92989
-0.939975
-0.691276
20.1022
8.04761
0.686411
19.929
19.452
-13.6908
21.5137
1.18225
-11.9724
-10.6404
-8.18427
-11.3394
11.0284
7.21628
-1.78233
6.01696
-4.74421
-1.42699
9.61312
5.0885
-17.2401
8.34552
4.32515
-9.63775
6.0228
12.2533
11.6107
-7.80278
7.12951
5.43411
9.76099
-8.82695
-15.7982
10.2033
-11.8268
11.6126
6.49523
2.72322
-6.79036
-13.1864
10.899
12.6694
6.50038
6.48526
6.45846
14.5012
9.50604
-0.875048
-1.75985
-1.90266
-21.5984
10.2861
11.8737
11.4322
2.30357
3.13116
2.50576
3.31879
4.89484
9.93451
-13.9784
-14.2674
-7.51164
7.02027
-12.4164
1.64899
10.8947
-1.67569
-6.64948
10.9271
2.09958
-2.29145
-8.20292
11.2939
12.1631
-30.8025
10.7946
-6.57945
-0.0240598
14.9934
6.78996
-10.1654
21.1596
21.5745
-11.2381
-11.7541
6.65328
7.52502
7.53505
-7.0229
-0.0136323
5.15242
2.36005
12.6317
9.50238
12.7176
-4.67493
-4.787
10.2728
9.87822
10.5598
-19.213
13.2553
13.1341
-4.81604
-5.08163
2.84185
5.30824
7.1871
7.69917
-13.5449
-14.7612
9.73208
10.4813
12.9861
13.2769
-0.0890066
0.942144
-15.1549
-16.0986
-0.302135
0.592665
-14.5415
-9.11256
-10.2392
8.17478
7.80491
-13.1293
9.48725
8.67722
4.6076
4.91374
5.64051
6.01509
-13.1987
11.0875
8.46714
-0.865385
1.84354
-13.1582
7.85587
-14.8385
-1.45207
14.6501
-1.93996
1.95789
10.8152
6.36896
-0.258805
0.427487
-11.9433
-2.58752
13.3152
2.09977
1.1873
-1.26049
5.50554
-0.483812
-1.4268
7.96185
8.82007
8.55796
6.6034
16.2458
-3.48785
13.6759
11.28
11.7849
1.74395
0.966138
15.6653
15.8484
4.75162
-19.836
-0.459817
0.365674
-11.1168
-11.2575
9.83888
9.83162
-8.83065
-9.36222
-10.3559
13.7162
13.977
8.72131
-29.0751
9.17763
10.5104
10.6715
-16.6357
-3.74043
6.84514
-17.8008
5.4194
-22.0004
-4.79449
-3.44237
2.78506
2.41561
-14.6127
-1.33544
5.65445
2.58906
1.93496
1.07351
1.79293
9.84595
12.7211
12.946
15.7694
-2.19037
-2.99641
-12.8235
10.0548
5.41414
-15.2257
7.33646
7.32697
7.75043
1.40401
1.99837
10.5343
5.87924
6.05133
2.62742
2.87731
10.3574
9.57749
2.99617
3.75525
-4.90914
11.2352
10.7837
-14.6328
2.27684
2.38214
2.06863
2.38004
2.55051
2.4381
-13.1423
-2.68021
1.29104
2.36336
3.19722
5.16602
2.60213
2.26244
12.4039
12.1095
3.19177
-11.2415
12.1246
-15.3168
-0.973954
-0.311137
12.2098
11.9868
9.48951
8.96879
-12.2163
6.24762
-4.86351
-4.80788
7.71834
8.4558
5.45742
-0.40054
-0.0954424
0.463223
13.2292
14.0659
8.68079
9.0539
10.0824
10.6227
10.4411
10.6204
5.03287
4.33177
-12.6737
-12.8453
-1.01149
-0.783911
-1.52142
-1.71123
21.1612
21.1284
21.3851
10.8032
10.4835
10.4316
5.53213
5.31301
11.0595
11.1109
11.1814
3.21925
2.27715
14.0555
13.1979
10.9121
10.7514
11.2211
11.5129
-11.9659
14.9693
15.0968
-0.630164
-1.79948
9.17931
8.93167
3.67459
4.26964
2.25845
2.96244
9.38516
6.33876
0.948525
-7.18916
-7.63556
-13.0626
1.82785
1.47396
2.16346
2.9533
8.27471
-9.60491
-10.4578
-9.45239
-1.98705
-0.19456
0.770802
15.0214
15.6697
3.20459
2.60456
11.5384
11.7933
-3.223
-3.49151
13.637
13.8419
2.3353
3.05088
9.88084
10.0963
10.31
10.0442
8.69474
8.89038
-3.73057
-2.82116
11.1833
11.0169
-16.2355
-15.0841
22.0065
8.86923
9.53597
9.73938
-8.75217
-9.46931
-1.5962
-1.42868
-4.94487
5.36807
5.37521
2.91525
2.34501
11.0866
11.261
4.68302
-25.3259
-15.0529
5.84442
8.27261
11.7124
9.65461
-1.14832
4.31488
3.75588
9.43042
10.0782
13.8099
14.3583
13.8499
10.8855
10.3522
-12.9751
-4.06972
10.4394
10.6438
10.3699
10.834
3.73896
3.51524
3.21908
3.31848
1.79874
3.97937
3.16368
6.26916
5.43109