/*--------------------------------*- C++ -*----------------------------------*\
  =========                 |
  \\      /  F ield         | OpenFOAM: The Open Source CFD Toolbox
   \\    /   O peration     | Website:  https://openfoam.org
    \\  /    A nd           | Version:  6
     \\/     M anipulation  |
\*---------------------------------------------------------------------------*/
FoamFile
{
    version     2.0;
    format      ascii;
    class       surfaceScalarField;
    location    "1400";
    object      phi;
}
// * * * * * * * * * * * * * * * * * * * * * * * * * * * * * * * * * * * * * //

dimensions      [0 3 -1 0 0 0 0];

internalField   nonuniform List<scalar> 
44596
(
1.53664
-2.16286
0.62622
1.53664
1.44642
-1.44642
1.93754
-0.491116
-0.0937617
-2.14668
2.09961
-0.562977
1.31005
-1.31005
0.215902
1.8168
-2.21224
0.765825
-0.267226
2.30057
-0.799711
-1.20614
0.799711
1.2999
-0.560321
-1.34353
0.560321
0.749725
-0.593802
-0.825729
0.825729
-1.17061
1.38652
1.19422
0.637133
-1.83136
0.043089
1.5031
-1.54618
1.42601
-1.42601
-0.147046
-1.67486
1.8219
1.54808
-0.0869439
-1.46114
1.12402
-1.12402
-1.10421
1.10421
1.12315
-1.12315
0.238323
1.24423
-1.48255
1.37149
-1.37148
1.46804
0.0800418
-1.31564
1.31564
0.267063
1.34961
-1.61667
-1.58227
1.58227
0.601087
0.58218
-1.18327
1.94149
-0.515476
-1.25385
-0.217714
1.47156
-1.42905
1.42905
0.706566
1.29325
-0.793338
1.4999
1.47161
-1.7669
0.295286
-1.62242
1.62242
1.05483
-0.816508
1.24571
-1.41629
0.170578
0.96164
-0.96164
1.20122
-1.34826
-2.3099
0.831004
-0.831004
1.00832
-1.09526
1.83932
-1.92626
-1.58682
-0.613722
-0.789793
-0.797031
-0.897778
0.897778
-1.03976
1.08285
1.98063
0.0634323
1.48731
-1.55075
-1.53504
0.13511
1.39993
-1.55075
-0.458255
0.0081356
-1.43719
0.11341
0.211428
0.259664
-1.81041
-1.50723
1.81041
0.529274
-1.20752
1.99732
-1.43719
-0.943204
-0.473086
-1.55831
1.55831
0.896886
-0.391097
-0.505789
-0.814181
0.415438
0.398743
0.703127
-0.113541
-0.589586
-0.00132403
-0.0921238
0.0934477
-0.0597009
-0.0638977
0.123599
0.0613595
1.44174
0.853788
-0.792428
-0.00300315
-1.45814
-1.20543
1.20242
-0.0393787
-0.00358073
0.0429594
0.124419
1.0698
-0.793306
0.555038
0.238268
-1.66116
-0.0136929
-0.349009
0.928067
-0.579058
0.416722
0.594844
-1.01157
0.0481657
-0.881892
0.833727
0.00920086
0.0669382
-0.0761391
-0.0358297
0.00979649
0.0260332
0.0963925
-1.03069
0.934295
0.805347
0.63639
0.710425
-0.60876
-0.101665
1.24558
-0.142366
-1.10322
-0.16322
-1.09436
1.25758
1.53188
-1.6951
-0.0217374
-0.0140923
0.0050871
-0.0444658
-0.934452
-0.726712
-0.0372164
-0.897236
-1.07572
-0.00687014
0.0329867
-0.0261166
-1.30895
-0.149189
-0.441112
-0.867836
0.0105469
-0.803852
-0.803634
-0.679434
-0.608397
-0.325461
0.933858
-1.19859
0.980879
0.000689256
-0.000689257
-1.10215
1.25389
-0.151739
0.251486
0.904848
-1.15633
0.819305
0.0687327
-0.888037
0.0164037
0.911663
0.913289
0.89797
-0.480872
0.897593
-0.886387
-0.31904
-1.13132
-0.307496
1.43882
-1.19788
0.259922
0.93796
0.536195
-0.853059
0.316864
1.05608
0.943819
-0.744367
0.754092
-0.00972498
-0.88232
1.0529
0.848582
-0.211449
0.253572
-1.18849
0.934913
-0.979723
-1.02833
-0.283112
0.986239
-0.897567
-1.41233
0.934783
0.308123
-1.24291
-0.00948552
-1.41653
1.14081
-0.205897
1.22242
0.758207
1.07595
0.923982
-0.631725
-1.29454
1.07284
0.171389
-1.10654
-0.879777
-1.85178
0.745234
-1.63694
-0.194414
1.15773
-0.735015
-0.422719
-0.10254
0.802136
-0.699595
-0.95229
0.084454
0.88659
0.116352
-1.05956
-1.32083
0.419932
-0.912884
0.492952
0.822975
-0.611547
-1.52443
-0.805801
0.332715
0.351932
0.715575
-0.776117
0.0605411
0.808856
-0.695445
0.0485335
-0.0393327
0.0383912
-0.0452614
-0.534991
1.02794
-1.2332
0.698205
-0.00120716
0.00120718
0.865669
-0.879321
0.0136523
0.130654
0.000750653
-0.000750629
0.000750661
-1.10006
1.10006
0.861907
0.802487
-0.671833
0.7569
-1.25308
0.496183
-0.720204
0.570139
0.150065
-0.00977967
0.396265
0.457523
-0.566148
-0.237486
-1.55106
1.49352
0.0575393
0.208172
-1.09049
1.53188
0.946396
1.38799
-1.46971
0.0817181
0.00151643
-0.00151641
0.000765806
-1.00437
0.890832
-0.859021
1.15946
-0.300441
0.817469
1.41856
1.29488
-0.712697
-0.638505
-0.37306
0.656372
2.35247
-0.980985
-0.145696
-0.923344
0.230729
-0.645726
0.414996
0.0613971
0.80051
0.285707
-0.875293
1.043
-0.0621198
-1.18503
0.945015
-0.246811
-0.130707
0.79416
-0.112824
1.23678
-1.35871
1.35893
-0.000225862
-1.0419
-0.504285
-1.53302
-0.767191
0.38362
0.0476794
0.627778
-0.675457
1.20972
-0.153638
-0.148984
1.7056
-0.483697
-1.2219
-0.146176
0.757777
-0.405845
-0.627372
-0.225688
-1.40145
1.33821
1.96443
0.00401598
-0.00308359
-0.000932376
0.0014785
-0.00671924
0.00524074
-0.0281439
0.0282782
-0.000134231
0.0412056
-0.0201407
-0.0210649
-0.00470304
-0.00484321
0.00954626
-0.00968839
0.00498534
-0.0562394
0.0115712
0.0446684
-0.0182075
-0.104888
0.123095
-0.00549705
-0.00550315
0.0110002
-0.0646622
0.0490251
0.0156371
-0.112441
0.0731276
0.039313
0.0588375
-0.00862723
-0.0502095
0.00628464
-0.00535474
-0.000929901
-0.498342
0.324094
0.174248
0.0190454
0.00161916
-0.0206645
0.00687645
-0.00491177
-0.00196468
-0.00120733
0.0012073
0.00396999
-0.00946705
0.00738764
-0.00482856
-0.00255909
0.0209636
-0.0444921
0.0235285
-0.0075878
0.00566856
0.00191924
0.00371555
0.0031609
-0.0520478
0.0043088
0.0477389
0.0445827
-0.0462475
0.00166479
0.0114043
0.014036
-0.0254403
0.0377007
-0.0262965
-0.055098
0.0107706
0.0443274
-0.0385919
0.0564956
-0.0179037
0.0014118
-0.0014118
-0.00608204
-0.00690463
0.0129867
-0.0109253
-0.0510845
0.056182
-0.00509567
-0.00802197
-0.0562949
0.0643172
-0.036829
0.00825496
0.028574
0.00354649
0.0159878
-0.0195343
-0.00337417
-0.0169522
0.0203264
0.00266304
-0.00266303
0.0137955
-0.0385534
0.0247579
0.00466423
0.0066996
-0.0113638
0.010334
-0.00178784
-0.00854614
-0.010744
0.0856851
-0.0749411
0.0654085
-0.0761525
0.0516784
0.022301
-0.0739794
0.0671227
-0.0154442
0.00724161
-0.00301908
-0.00422253
-0.00394397
0.046375
-0.042431
0.0614645
0.00925089
0.00979447
0.0190474
0.00601798
-0.0244347
0.0184167
-0.0198148
0.0196072
0.000207592
-0.007815
-0.0119998
0.0563615
-0.0545385
-0.00182264
-0.047125
-0.00807094
0.055196
-0.00698438
0.00323899
0.00374538
0.00900506
-0.00674561
-0.00225945
-0.011158
0.0355268
-0.0243688
-0.0491824
0.041161
0.00965526
-0.00992303
0.00381285
-0.00675712
0.00294427
-0.017102
-0.0379959
-0.000999832
-0.00457322
0.00557305
-0.0216861
0.0138711
0.0119767
0.0033106
-0.0152873
0.00600029
-0.0129049
-0.627207
0.301745
-0.022975
0.011817
-0.00282288
-0.00125932
0.0040822
0.0230823
-0.0227591
-0.000323237
0.0085263
0.014556
-0.0117262
-0.0112488
0.00436228
-0.0160885
0.0072251
-0.0184739
0.00586442
-0.00767803
0.00181361
-0.00224293
-0.00380955
0.00605249
0.000554172
0.00969224
-0.0102464
0.0480313
-0.0372608
0.00943945
-0.0510961
0.0274118
0.0236844
-0.0157131
0.0196514
-0.00393824
-0.00326936
0.016256
0.0113602
-0.00909982
-0.00226038
0.044954
-0.0355146
0.0467568
-0.0018028
-0.0465547
0.0110401
0.0579039
-0.675713
0.617809
0.00519095
0.00381411
-0.00319501
-0.00378937
0.0633503
-0.341306
0.277956
0.172051
-0.502288
0.330238
-0.000420123
-0.00613199
0.00655212
-0.00319049
0.00624339
-0.0030529
0.0260123
-0.0174861
-0.0104846
0.0306977
-0.0202132
-0.028321
0.0110809
0.0172401
-0.0183591
0.0287686
-0.0104095
-0.0466801
0.0398495
-0.00628131
-0.00464395
-0.0174746
0.0246997
-0.00618444
0.00766294
-0.00517576
0.00679491
0.0144578
-0.0347739
0.0491622
-0.0143883
-0.0550302
0.0202563
-0.00217136
0.0208092
-0.0186379
0.00619686
-0.0192139
0.013017
-0.0624407
-0.0499999
0.262213
-0.585632
0.32342
0.000878279
0.0525005
-0.0533785
0.0572399
0.0438736
-0.372427
-0.125915
-0.0119048
-0.00875977
0.00766316
0.011375
-0.0190382
-0.142886
0.202756
-0.0598706
-0.00114134
0.00114133
0.0895975
-0.0338509
-0.0557464
-0.00559511
0.00852645
-0.00293134
-0.0504142
-0.0270476
0.0774622
0.00860685
0.005851
0.0116214
-0.00665296
-0.00496839
0.00677113
0.0128361
0.012968
0.00260816
0.0102279
0.185392
0.118751
-0.304143
0.0198374
0.00614164
-0.0259791
0.00190004
-0.0138048
0.464387
0.124674
-0.589061
-0.748478
-0.133415
-0.00429172
-0.0216873
0.0368243
-0.00383755
0.0325326
0.0275992
-0.0223224
-0.0052768
0.0128829
-0.0389995
-0.00769491
0.0014136
-0.00862734
0.000932435
-0.38691
0.482852
-0.0959422
-0.506868
0.497143
0.0230029
0.0334927
0.040243
0.0504371
0.0122036
-0.0626405
-0.0505204
0.0401109
-0.00135819
0.0410417
-0.000930824
-0.00672561
0.0484273
-0.0417018
-0.0538507
-0.0058838
0.00424556
0.00163823
-0.0758273
0.0254132
-0.00713779
0.0517204
0.0108626
0.00738761
-0.0182502
-0.00869123
-0.0140679
-0.00668024
-0.635517
0.497053
0.138464
-0.0366807
0.0266896
0.00999117
0.00102
-0.0244066
0.241671
0.236269
-0.477939
0.340646
-0.0989753
0.553132
-0.00809838
-0.00100143
0.00161381
0.0097612
-0.00648457
0.0308307
-0.0321548
0.0338315
-0.0287444
-0.0608992
0.328638
-0.155212
-0.173426
0.00494792
0.00499366
-0.00994159
-0.00603141
0.00902613
-0.00299472
-0.00630511
-0.0137474
0.0200526
0.00945698
-0.0157621
-0.0117229
0.00523829
0.00110385
-0.0128267
0.0113237
-0.00608543
0.0292517
0.0225439
-0.0517956
0.0320702
-0.00144208
-0.0306282
-0.0113858
-0.0495134
0.0374113
0.00097991
0.0260255
0.00896868
-0.00138846
-0.00758022
0.00268713
0.00628155
-0.0241121
-0.0209097
0.0450218
0.0141209
0.0183929
-0.0325138
-0.00251684
0.00352006
-0.00671055
-0.00586997
-0.0461778
0.0451571
-0.0241934
0.00576554
-0.00821995
0.00245441
-0.00780544
0.00639142
0.00141402
-0.0262148
0.0121226
-0.00631774
0.0323432
0.0146829
-0.016973
0.00229007
0.0206832
-0.0191619
0.92401
0.210423
0.592064
-0.441153
-0.186219
-0.0101504
-0.00682263
0.00522873
-0.0153791
0.00859404
-0.0154167
-0.0496211
0.0111139
0.0385071
0.000595969
-0.0568715
0.0562755
0.00877995
0.0201824
-0.0289624
-0.022816
-0.00969784
0.0399382
0.0084892
-0.0103465
-0.035901
0.0295917
0.0074589
-0.00183465
-0.00562425
0.00620843
0.00125047
-0.00719084
0.00535619
0.0198805
-0.016334
-0.530578
0.591119
-0.51242
0.593911
-0.0814908
-0.00427465
-0.00734298
0.0116176
0.0258341
-0.0855351
0.0324071
-0.0186116
0.00426315
0.0281452
0.0121985
0.00848475
0.0173254
-0.00512688
-0.0147418
0.0232265
0.0790426
-0.0690447
-0.00999688
0.00327445
-0.019669
0.0163946
0.020813
-0.00793017
0.0240875
0.324966
-0.338089
0.013123
0.00216856
0.0094528
-0.00812938
-0.00049796
-0.00596083
0.00895484
0.497963
0.946523
-1.44449
-0.000762002
0.000761979
-0.569909
-0.0678967
0.637806
-0.81936
1.31732
-0.00129396
8.67993e-05
0.467581
-0.409677
-1.06506
1.06506
0.130629
0.945324
-0.885535
0.654147
0.231388
-0.407445
-0.478091
1.23871
-0.260709
-0.977997
0.113447
-0.0573426
-0.0561041
-0.528241
-0.107277
-0.103484
-0.424756
-0.835202
0.931594
0.185224
0.312873
-0.498097
0.370616
0.0436864
0.648405
-0.692091
0.483091
-0.439405
0.0678083
-0.01737
0.602076
-0.621238
0.536757
0.0653187
0.136521
-0.110687
0.48427
-0.235853
-0.248418
0.196748
0.287522
0.00362734
-0.00393315
0.000305802
-1.0162
-0.144936
0.576866
-0.43193
-0.000529944
0.000529928
0.399913
-0.944638
0.544725
-0.554298
0.601977
-0.308665
0.594372
0.0812967
0.0552244
-0.607754
-0.21869
0.826445
-0.0586407
-0.0222709
0.0809124
0.00916866
-0.157006
0.00882643
0.148179
0.644368
-0.700348
0.0925936
-0.327866
-0.372482
-0.691841
0.363975
-0.918285
0.0462639
-0.997238
0.750427
-0.163511
-0.440142
-0.235571
-0.638026
0.412338
-0.130063
0.352788
-0.897317
0.50622
-0.609978
-0.287339
0.00055397
-0.000553975
0.00111384
-0.00386279
0.00274894
1.03558
-0.148987
-0.0113307
-0.670998
0.682329
0.944398
-0.61758
-0.326817
0.33442
0.219397
-0.700269
0.661123
-0.0879149
-0.573208
0.880841
0.738475
-0.314537
0.71445
0.0301924
0.074066
0.0177712
-0.18668
0.227376
-0.0406959
0.219682
0.424686
-1.1527
1.1527
-0.490303
-0.201538
-0.757325
-0.273361
0.837811
-0.331591
0.0804854
0.273422
0.194159
-0.00394247
0.00227972
0.00166275
0.792971
-0.530759
0.302669
-0.0251857
-0.0890834
-0.00857325
0.00261243
0.81224
-0.957176
-0.455297
2.01361
1.03822
-0.541906
0.359738
0.182168
-0.268484
-0.325528
-0.332543
0.658071
0.0365762
0.24725
-1.50033
0.861212
-0.613962
-0.0829941
-0.255395
0.338389
-0.269674
1.20161
-0.059055
0.041953
-0.036754
-0.623764
-0.211437
1.07445
0.248782
-0.578982
0.3302
-0.829968
-0.581187
-0.801481
0.25515
-1.05663
-0.00974785
-0.0130772
0.0540455
0.0636136
-0.942935
0.712018
-0.000373285
0.000927249
1.22242
-0.682736
1.90516
0.225263
1.03835
-0.813086
0.934865
-0.925463
-0.0907417
-0.290551
-0.288431
0.643307
-0.0189155
0.00417371
-0.0166254
-0.0276812
0.0110558
0.110923
-0.647681
0.723265
-0.0755846
0.298509
-0.605923
0.98528
-0.379356
-0.0290568
0.783183
1.04601
-1.19219
0.0062769
-0.630694
0.266899
-0.142425
-0.00357791
0.0268044
0.0433931
0.183983
-0.067294
1.27123
0.211044
0.848513
0.0444333
-0.0525041
-0.0101052
0.0102297
-0.0993131
-0.0753054
-0.142599
-0.0227175
-0.0620502
0.419027
-0.494612
0.510269
-0.0912417
0.349343
0.160926
0.422199
-1.34166
0.158248
0.040185
-0.487542
-0.158184
-0.447358
0.577149
0.0406601
-0.446912
0.288729
-0.0983064
-0.348606
-0.353701
1.13961
0.130365
0.826609
-0.696244
0.565899
-0.000531506
-0.000230502
0.00474118
-0.781091
-0.456997
-0.590411
0.0224525
1.3946
0.71186
-0.757851
-0.00782806
0.00939386
-0.0015658
0.00286764
-0.0106957
0.00134415
0.00471073
-0.00605488
-0.00569209
-0.0071496
0.0128417
-0.151055
0.264937
-0.113882
0.00513622
-0.00431412
-0.000822103
0.00746363
-0.00188186
-0.00558177
-0.00627651
0.00389571
0.00238079
-0.00451211
0.00399523
0.000516879
-0.0143104
0.014292
1.84111e-05
0.0114747
-0.00237836
-0.00909631
0.00267318
0.0088015
-0.0168371
0.00506822
0.0117689
0.0069384
-0.00266794
-0.00427046
0.00276105
0.00417735
-0.0133442
0.00491194
0.0084323
0.00547431
-0.0188186
-0.0035555
-0.00436607
0.00792157
-0.00860159
-0.00159185
0.0101934
0.00201517
0.00803954
-0.0100547
0.00437622
0.00222749
-0.00660371
0.00475196
-0.00789801
0.00314604
0.00857347
-0.00955599
0.000982516
0.00181381
0.00675966
-0.00783311
0.00518014
0.00265297
-0.00501631
-0.0028168
0.00248033
-0.0071482
0.00466787
-0.0015951
0.00996146
-0.00836636
-0.00230028
0.00412654
-0.00182626
-0.00329455
0.00198112
0.00131344
-0.0034185
-0.00290625
0.00632474
0.00488319
-0.0083017
-0.00289963
0.0101617
-0.00726206
-0.00753636
0.00224004
0.00529633
-0.00165718
-0.00587918
0.00294675
-0.00696212
0.00401537
0.00202314
0.00430499
-0.00632813
0.00756196
-0.00769328
0.000131319
0.00327069
-0.00278077
-0.000489916
0.00368839
0.0031849
-0.00687329
0.00370909
-0.00493242
0.00122333
-0.00648873
0.00293323
0.00750704
0.000522075
-0.00802912
0.00422797
0.00327907
0.00348803
0.00768108
-0.0111691
0.00854114
-0.00996768
0.00142653
0.0106924
-0.00108712
-0.00960524
-0.0091813
0.000476639
0.00870467
-0.00830502
-0.000794721
0.00909974
-0.00440476
0.0068851
0.00803851
-0.0117186
0.00368014
-0.013211
-0.00109944
-0.00715904
-0.00605194
-0.0247193
0.0198919
0.0048274
-0.00702226
-0.333483
0.340505
-0.00895604
0.00455031
0.00440573
-0.00597236
0.00742383
-0.00145147
0.185201
-0.192223
-0.00471789
-0.00538212
0.0101
-0.00967799
0.00162987
0.00804812
-0.00251642
-0.00716157
0.0199273
-0.00571565
-0.0142116
-0.00747469
0.027402
0.00801859
-0.00229946
-0.00571913
0.00305729
0.0049613
-0.00714057
0.011299
-0.00415843
0.00552179
-0.00813501
0.00261322
0.00851698
-0.00575593
-0.00115285
0.0118047
-0.0106519
0.00474176
-0.00613268
0.00139092
0.00970584
-0.0129481
0.00324226
0.00875144
-0.00875145
0.00217955
0.0156837
-0.0178633
-0.0103021
0.00553723
0.00476486
-0.00924423
0.00329545
0.00594879
0.00850008
-0.00850008
0.00814201
-0.00814201
0.000659044
0.00778538
-0.00844442
0.0303634
-0.0132001
-0.0171631
-0.00406955
-0.00616107
0.0102306
0.00634684
-0.00579445
-0.000552285
-0.0222192
0.0059401
0.0162791
0.0107763
-0.0329955
0.00362149
0.00475675
-0.00837823
0.00465843
0.0016262
-0.00259996
-0.00459088
-0.00347173
0.0154485
-0.00418142
-0.00543945
0.00962087
0.00543938
-0.0032726
-0.00216678
-0.00543748
-0.0019489
0.00738639
-0.0115872
0.00465672
0.00693049
-0.0112691
0.00748033
0.00378878
-0.00438122
0.00707555
-0.00269433
0.000331794
-0.00471301
0.012725
-0.0100841
-0.00264091
0.0101565
0.00148582
-0.0116424
-0.00873308
-0.00117597
0.00990905
-0.00512771
-0.00360536
-0.00170589
-0.00706011
0.008766
0.00216447
-0.00691712
0.00475265
-0.000434362
0.00602348
-0.00558911
-0.000958215
0.0059089
-0.00495068
-0.00397798
-0.00417395
0.00815193
0.00910328
-0.00467321
-0.00443007
-0.0121258
-0.00259273
0.0147185
0.0125299
-0.00666131
-0.00586862
0.00535765
0.00650295
-0.0118606
-0.00690758
0.00695332
-4.57444e-05
-0.00619687
0.00685295
-0.000656086
-0.00761978
0.0118608
-0.00424103
0.00721221
-0.000150867
-0.00706134
0.00814337
0.000248568
-0.00839194
0.00963215
-0.0028209
-0.00681126
0.00173542
-0.00698313
0.00524772
0.00201497
-0.00706504
0.00505006
0.00573052
-0.00163969
0.00660525
-0.00496556
-0.00795807
0.000878147
0.00707992
-0.0184422
0.0261225
-0.00768022
0.00181392
-0.00539075
0.00357684
0.00320425
0.00492345
-0.0081277
-0.00692863
-0.00414694
0.0110756
0.0031576
-0.0100862
0.00602978
-0.000406374
-0.00562341
0.00818275
-0.00215297
0.0194446
0.0109189
0.00494725
0.00417298
-0.00912023
0.0107911
-0.0104191
-0.000371959
0.00999157
-0.00999159
0.00594278
0.00357739
-0.00952017
-0.00557978
-0.00199836
0.00757814
0.0145522
0.0245367
-0.0390889
-0.00291502
0.00834084
-0.00542582
0.00148157
0.00642845
-0.00791001
0.0160311
-0.0135746
-0.00245653
-0.00451217
0.00122282
0.00328935
0.00807752
0.00286177
-0.0109393
-0.0030263
0.00653964
-0.00351334
0.00717499
0.00510195
-0.0122769
0.00110137
0.00626473
-0.00736609
-0.00292699
-0.00634285
0.00926983
0.000538639
0.00679845
-0.00733709
-0.0275591
0.0451318
-0.0175727
0.0344966
-0.0620557
-0.00869758
0.00163855
0.00705903
-0.00463739
-0.00406019
-0.00917734
-0.00221374
0.0113911
0.00824832
-0.00462651
-0.00362181
-0.0116471
0.00659944
0.00504764
-0.00717837
0.0107512
-0.00357279
0.00156818
-0.00722604
0.00565786
-0.00310212
-0.0030129
0.00611502
-0.00849175
0.00139321
0.00709854
0.00146948
0.00193566
-0.00340514
-0.00304716
-0.00146495
-0.00224816
-0.00612833
0.00837649
0.00976443
-0.00873772
-0.00102671
0.00948788
-0.0111938
0.0110282
-0.00834102
0.000518119
0.00441685
-0.00493497
0.00609254
-0.00557442
-0.0265016
0.0344742
-0.00797268
-0.0207515
-0.0057501
0.00226608
0.00585668
-0.00812276
-0.00914253
0.00921884
-7.63055e-05
-0.00536328
-0.00377925
0.0105173
-0.007225
-0.00329228
0.00665477
-0.0116711
0.000988117
-0.00821611
0.007228
-0.00406045
0.00754848
0.00624862
-0.0103091
-0.00834566
-0.00476152
0.0131072
-0.00726153
-0.00400897
0.0112705
-0.0125979
0.00553782
-0.00781465
0.00383667
0.00144483
0.00408223
-0.00552706
0.00509127
-0.00560371
0.000512441
0.00296711
0.00212415
-0.00111307
0.00815575
-0.00704268
0.00563355
-0.00729073
0.027505
-0.00114385
-0.0263612
0.043075
-0.01557
-0.032563
-0.00599043
0.0101788
-0.00889032
-0.0012885
0.00725183
0.00792128
-0.00566634
-0.00225494
0.00164477
-0.0101023
0.00443593
0.00159051
-0.0173036
0.00571459
0.00331646
-0.00903104
-0.0079658
0.00938438
-0.00141858
-0.00618358
-0.00149816
0.00768174
0.00335466
0.00679066
-0.0101453
0.00665061
-0.00537596
-0.00127466
0.00360154
0.00227889
-0.00588043
-0.0210936
-0.0277762
0.0488697
0.00697445
-0.00988946
-0.00556176
0.011258
-0.00569625
-0.00827666
0.0018333
0.00644336
-0.000331644
-0.00951792
0.00984956
0.0101291
0.00101546
-0.0111446
0.0038341
0.00346072
-0.00729481
0.00789439
-0.010513
0.00261859
0.00651743
0.000720616
-0.00723805
0.130427
-0.0480029
-0.0824238
0.000115733
0.00951642
0.0082591
0.0111757
0.00481585
-0.0159915
-0.00554819
0.0117315
-0.00618331
0.00200528
0.00599236
-0.00799764
-0.00799081
0.00337602
0.0046148
-0.000915298
-0.00599228
-0.00864254
0.0185207
-0.00987815
-0.00338448
-0.00513531
0.00851979
-0.00207188
0.0104936
-0.00842177
0.0047459
0.00799327
-0.0127392
0.00839019
-0.00947203
0.00108184
0.010648
-0.00797486
0.0101093
-0.0069679
-0.0031414
0.00272106
-0.00972819
0.00700713
-0.0044271
0.00714817
0.000578525
0.00669471
-0.00727324
0.010591
-0.00584507
0.00528896
0.00440275
-0.00969171
0.00586731
0.00252288
-0.00383486
0.00970217
0.0105161
-0.00675196
0.00980926
0.00726868
-0.00432193
-0.00170877
0.00888377
-0.010721
0.00782133
-0.0214202
0.00519528
0.0162249
-0.0136398
-0.00778045
-0.0109961
0.00825791
0.00273821
-0.0101184
-0.000877693
0.000173038
0.0053301
-0.00550314
0.00209993
-0.00684719
0.00474726
0.0321352
0.0209046
-0.0530399
-0.0321103
-0.0180991
2.4984e-05
0.00252316
0.00320568
-0.00572884
0.00466942
0.0004668
-0.00401766
0.0126021
-0.00858439
0.00161253
-0.00738209
0.00576956
-0.010961
0.0070359
0.00392508
-0.00682928
0.00243085
0.00439844
-0.00583013
0.00720239
-0.00137226
0.00436028
0.0134779
-0.0178382
0.0098346
0.00569453
0.0077834
-0.00608818
0.0108843
-0.00479614
-0.00779741
-0.00328694
0.0110844
-0.0043413
-0.0044863
0.00882761
-0.00206237
-0.00650471
0.00856708
0.00191098
-0.00883827
0.00692729
0.00772969
-0.0105506
0.0170728
-0.0054385
-0.0116343
0.00992857
0.00514992
-0.0150785
0.00928211
-0.0357372
0.0264551
0.0011991
-0.00979234
0.00859324
-0.00543351
0.0115038
-0.00607028
0.00947938
-0.00109777
-0.00838161
-0.0012044
-0.00843281
0.00963721
0.00920076
-0.00780989
-0.00139087
0.000895745
0.000935252
0.00280333
-0.00373858
0.0138907
-0.00396218
0.00646721
0.00742354
0.0131106
0.00170761
-0.00679198
0.00508437
-0.006277
0.00702083
-0.000743833
-0.0020225
-0.0042545
-0.000434321
-0.00881481
0.00924914
0.00959519
-0.00444528
-0.001695
-0.0102433
0.0119383
-0.0104243
0.0087293
-0.00511878
0.00952235
-0.00440357
-0.00679579
-0.00296881
0.0097646
-0.0174021
0.0120487
0.00535342
0.0110296
-0.0143494
0.00331985
-0.0391676
-0.0170718
0.0749311
0.0554956
0.0113423
-0.00282407
-0.0085182
0.0186981
-0.0126801
0.00932877
0.00924567
-0.0185744
0.0103469
-0.00808077
0.00211019
0.00823666
-0.00674171
0.0088519
-0.00467404
-0.00720855
0.0118826
-0.00351169
-0.00307281
0.0065845
-0.037368
0.0207173
0.0166507
0.0321554
-0.0292485
-0.00290694
-0.00184131
-0.00205875
0.00390006
-0.0357494
0.0233697
0.0123797
0.00625458
-0.0273415
0.0210869
0.000229311
-0.0112658
0.0110365
0.0016339
-0.0120814
0.0104475
-0.0138576
0.0066416
0.00721599
-0.00411621
0.00739808
-0.00328187
-0.00543449
0.0107921
0.00709544
-0.0021326
0.00663906
-0.00450646
0.00243853
0.00362741
-0.00606595
-0.00731298
-0.0018774
0.00919038
0.00355401
-0.00642116
0.00286715
-0.00195404
0.0125372
-0.0105832
0.00700392
0.00740971
-0.0144136
-0.00215605
-0.00810854
0.0102646
0.00543105
-0.00965674
0.00422569
0.00531171
-0.00462349
-0.000688218
-0.00191882
-0.00482678
0.00339288
-0.00592307
0.00548871
-0.00803779
0.00760347
-0.00816077
0.000936193
0.00722457
-0.00856919
0.00914601
-0.000576816
-0.00665821
-0.00382984
-0.00876808
-0.0110914
-0.0027753
-0.00746802
-0.0103951
-0.00126117
-0.00620686
0.00530946
-0.00697268
0.00166322
0.00740938
0.000698911
-0.00501303
0.00867854
-0.00894805
0.000269513
0.00202484
0.00665371
-0.0117092
0.00319057
0.00851859
-0.00587833
-0.00539158
0.0112699
-0.0213651
0.0122936
0.00907154
-0.0141067
-0.00725846
-0.00414643
0.0107323
-0.00658589
0.0049585
0.00665836
-0.0116169
0.00164837
-0.00861472
0.00696635
0.0273151
0.00821168
0.0335697
0.142778
-0.238721
-0.190704
-0.00193955
-0.00650525
0.0084448
-0.00593421
0.00399466
-0.00596755
0.0118678
-0.0059002
-0.00183578
0.00369878
-0.001863
0.0172991
-0.013976
-0.00332309
0.000805208
-0.00571697
-0.00849464
-0.0342404
0.0427351
0.0330018
-0.0414964
0.0112058
-0.0200338
0.00882798
0.0051627
0.00585052
-0.0110132
0.0192972
-0.0119448
-0.00735249
-0.0104972
0.0172703
-0.00677306
-0.0122751
0.0267834
-0.0145082
0.016003
0.0322538
-0.00547038
0.00393229
0.00407976
-0.00801205
0.0188301
0.0223755
0.0395001
-0.0212524
-0.0182477
0.00919381
-0.0112729
0.00207913
-0.00872532
0.00971545
-0.000990139
-0.0247908
-0.00255074
-0.0129738
-0.0195774
0.0170266
0.0168953
-0.0138384
-0.00305683
-0.0287361
-0.0347224
0.0634586
-0.0630369
0.0365718
0.0264653
0.0163773
0.000288113
-0.0166654
-0.00758403
0.00412152
0.00346251
0.0029419
-0.00489544
0.00195354
0.00299245
0.00242734
-0.00541978
0.00593435
0.00553183
-0.00134656
-0.00418527
0.00346978
-0.00442799
-0.00335951
0.00393871
-0.00745042
0.00351171
0.0071777
-0.0100946
0.00888694
0.00120767
-0.00622506
-0.00386955
-0.00255064
-0.00645876
0.00900941
0.000719569
0.00829535
-0.00901492
0.00939941
-0.00867984
-0.00178207
0.0112699
0.00924609
0.000170362
0.00503244
-0.00520281
-0.00438151
0.00455188
0.0118641
0.00287258
-0.0147366
-0.0043894
-0.0140528
-0.0111802
-0.00201111
-0.00750921
0.00952032
0.00571696
-0.00772806
-0.00121836
-0.00629085
0.00141203
-0.0105715
0.00915946
0.00418339
0.00568419
-0.00986758
0.00998614
-0.00455509
-0.00392251
0.00416262
-0.000240107
0.00975719
-0.0042428
-0.00551439
-0.00748242
0.00748242
-0.0160489
-0.0220746
0.0381236
-0.00763229
0.00704439
0.000587898
-0.00405568
-0.00187852
0.0261837
0.00335702
-0.0295407
0.0131576
0.0130261
-0.0221144
0.0254715
0.00619084
-0.00410382
-0.00208702
-0.00169056
-0.00515017
0.00684074
0.00450028
-0.00772471
-0.00386249
0.010806
0.00608927
-0.00103301
0.011839
-0.00915019
0.0152395
0.0106919
0.000590111
-0.011282
0.00529457
0.00539734
-0.0137218
0.014312
-0.00537992
0.00699244
0.00548354
0.0053835
-0.010867
-0.00578557
-0.00376357
0.00947816
-0.00178292
0.00430945
-0.00252653
0.00291602
-0.00671931
0.00380329
0.0159905
0.00139489
-0.0173854
0.00366244
-0.0112925
0.00763004
-0.00335333
-0.00321948
0.00657281
-0.00608682
0.00593765
0.000149176
-0.0489554
0.0674121
-0.0184567
0.00576957
-0.00983913
0.00919405
-0.00284823
-0.00634582
0.00139664
0.0503795
-0.0419071
-0.00847235
0.00382069
0.00236646
-0.00618715
0.00542208
-0.00160139
0.00644614
-0.00407968
0.00855574
-0.0221955
-0.0449414
0.0261735
0.0187679
0.0380623
-0.0151666
-0.0228957
-0.0207922
0.0235406
-0.00274837
0.020149
-0.000318877
-0.0198301
0.00888995
0.00540205
0.0105239
-0.00711415
0.0125162
-0.0272486
0.0123819
0.0148666
0.00861298
-0.00942609
0.000813105
0.00338825
0.00522474
-0.00645275
-0.00388106
0.0103338
0.00548557
0.00578412
-0.00961898
-0.0022311
-0.00567024
0.00790134
-0.00952262
0.00483728
0.00468535
-0.0117537
0.00275942
-0.010666
0.00790655
-0.00943705
0.00714175
0.0022953
-0.00667763
0.00402105
-0.00668725
0.00266619
0.00251137
-0.0101983
0.00768696
-0.00349064
0.00349064
-0.00117251
0.00777425
-0.00660173
0.00244591
0.00583366
-0.00827957
0.018996
0.0205041
0.0016339
0.00866928
-0.0103032
-0.00333741
0.00333742
0.0039217
0.00346594
-0.00220348
0.00612518
-0.0089775
0.0103895
0.000953129
-0.00613396
0.00518083
0.0061185
-0.00127543
-0.00484307
0.00707163
0.00371845
0.0032619
-0.00698035
-0.00329868
0.00689736
-0.00359868
-0.0056166
0.00574831
-0.000131713
0.00606518
-9.19667e-05
-0.00597321
-0.00644096
-0.00525315
0.0116941
-0.0105879
0.00174856
0.00475471
-0.00650327
-0.0096385
0.0225489
-0.0129104
0.00147219
0.00673151
-0.0082037
0.00795017
-0.00647797
0.00258621
-0.00258621
0.00783748
0.00305767
-0.0108952
0.0036214
0.00421608
-0.00456095
0.00761862
0.00999573
-0.00797089
0.00213417
0.00799493
0.0101727
0.00766328
0.00992566
-0.00636308
-0.00356259
0.000720771
-0.00891184
0.00819106
0.00852608
-0.00780531
-0.00141788
0.00769979
-0.0062819
0.00491945
-0.00633733
0.0049261
0.00105425
-0.00598036
0.0184142
-0.0159209
-0.00249324
-0.00791694
0.0197951
-0.0118782
0.0283191
-0.0109013
-0.0174177
0.0263834
0.00193568
0.0213525
-0.00870085
0.00198161
-0.000138456
0.00735813
-0.00721967
0.00651561
-0.00649163
-2.39872e-05
0.0110771
-0.00776648
0.00239951
-0.0107452
0.0134766
0.00247052
-0.00247051
0.00467788
-0.00557464
0.000896759
-0.00677618
0.00894065
0.00836943
-0.0108858
0.0227654
-0.00821326
0.00677526
-0.024193
-0.0324062
0.00921828
-0.00264017
-0.00657811
0.00247657
-0.00908767
-0.00028774
0.0093754
-0.00967317
0.00986306
-0.000189879
0.0315894
0.00190327
-0.0052764
0.00527641
-0.00575952
0.00609131
-0.00658367
0.00494397
-0.0329764
-0.00188419
0.0348606
-0.013067
-0.0199093
0.033942
-0.0358262
0.00594332
-0.00594333
-0.0184019
-0.00807898
0.0264808
-0.025268
0.0165913
0.00867673
0.00173849
-0.00173849
0.00348652
-0.00348653
0.00581754
-0.000934345
0.00340549
0.00267762
-0.00608311
0.00485032
0.00449154
0.00558555
0.00200715
-0.00759269
0.00163809
0.00575744
-0.00739552
0.00120866
0.00694885
-0.00815751
-0.0388184
0.0204166
0.00380208
0.00342231
-0.00722439
0.00602239
-0.00718153
0.00115913
-0.00394674
0.00647993
-0.00253319
0.00207565
0.0071108
-0.00603783
-0.00107297
0.00333944
0.00377136
-0.00674051
0.000235263
-0.00242932
0.00242932
-0.0230152
0.0410782
-0.018063
-0.0345559
0.0107781
0.0237779
-0.0306597
-0.00389613
0.037147
-0.0263689
0.0065217
-0.00186498
0.00108421
-0.00756328
-0.00420015
0.0117634
-0.0115809
0.00867224
-0.0128724
0.0209199
-0.0149522
-0.0059677
-0.000766238
-0.032219
0.0172668
0.00743293
-0.00383139
-0.00254505
0.00254505
0.00827805
-0.0153922
-0.010005
-0.00263113
0.0126362
0.0263663
-0.0330156
0.00664937
-0.0105434
0.0369097
-0.00258078
0.00878189
-0.00620111
-0.010048
0.00746722
-0.00361516
0.00712485
-0.00350968
0.00367435
-0.00592721
0.00225286
-0.012205
0.0124343
-0.0076055
0.00156767
-0.00268605
-0.00692408
0.00123258
0.00797808
-0.00921066
0.00748813
-0.00625555
-0.0160041
0.017782
-0.00177792
0.00679429
-0.0159101
0.00911577
0.00728192
-0.0101301
-0.00236659
0.00236658
0.0012196
-0.0012196
0.0167682
-0.0138101
-0.00295813
0.00744309
-0.00572798
-0.00171511
0.0082355
-0.000792412
-0.00791431
0.00175325
-0.00373736
-0.00417695
-0.007235
0.00388167
-0.00420187
-0.00755185
-0.00956515
-5.29832e-05
-0.00454934
0.00460232
-0.0373403
0.0162847
0.0210556
-0.0272915
-0.00845786
0.000684319
-0.00651445
0.0065489
-0.000483723
-0.00356043
-0.00549338
0.00905381
0.00393603
0.0102388
-0.0141749
0.00755335
0.00318628
-0.0107396
0.00381727
-0.00614636
0.00232909
-0.000813841
0.00463111
-0.00296852
0.00763276
0.00736547
-0.00048608
0.0151234
-0.0146374
-0.0164901
-0.00193787
0.00193787
0.000238843
-0.00217672
-0.0135282
0.00808971
-0.00541739
0.00659008
-0.00117268
-0.000188065
-0.00522933
0.00184262
-0.00184262
0.000182357
-0.00561314
0.00543079
-0.00438924
0.0069124
0.00691284
-0.00732569
0.00041285
-0.02764