/*--------------------------------*- C++ -*----------------------------------*\
  =========                 |
  \\      /  F ield         | OpenFOAM: The Open Source CFD Toolbox
   \\    /   O peration     | Website:  https://openfoam.org
    \\  /    A nd           | Version:  6
     \\/     M anipulation  |
\*---------------------------------------------------------------------------*/
FoamFile
{
    version     2.0;
    format      ascii;
    class       volVectorField;
    location    "1400";
    object      U;
}
// * * * * * * * * * * * * * * * * * * * * * * * * * * * * * * * * * * * * * //

dimensions      [0 1 -1 0 0 0 0];

internalField   nonuniform List<vector> 
29874
(
(7.52606 0.0627426 1.07698e-16)
(5.38852 0.0281961 -9.94896e-17)
(5.42397 -0.121063 2.00661e-16)
(7.10975 -0.0801148 -1.19129e-16)
(7.80614 -0.118571 0)
(7.42552 0.00435713 -9.67718e-17)
(4.77553 0.0946795 6.36362e-18)
(7.1241 0.0172111 2.07052e-18)
(7.44882 -0.00416756 -1.36879e-17)
(7.19173 0.21179 -1.62085e-17)
(7.20166 -0.115698 0)
(7.23199 0.103139 -3.54595e-17)
(4.44543 -0.0538435 9.19525e-17)
(8.26737 0.0486804 0)
(6.72192 0.20332 1.06164e-16)
(6.60427 0.137341 0)
(4.25937 -0.0200095 0)
(7.79974 0.212175 -1.38755e-16)
(4.96171 -0.0407646 -1.44659e-16)
(7.99514 -0.0695392 -3.06539e-18)
(7.1189 -0.0228868 3.45673e-17)
(7.07112 -0.0257221 1.02217e-17)
(7.0351 0.0590978 -9.21049e-17)
(7.52433 0.0361968 0)
(5.75765 0.294181 0)
(7.767 -0.00893038 -2.60243e-17)
(7.96565 -0.0425471 -8.8761e-17)
(5.06788 0.12022 1.20471e-16)
(5.32282 0.123013 2.13865e-17)
(4.94088 -0.117937 4.68705e-17)
(8.06224 -0.094178 -2.76027e-17)
(5.33615 -0.098493 -2.67372e-16)
(7.84911 0.0554582 0)
(5.18413 -0.0332789 -8.31443e-17)
(7.39609 0.131437 3.33177e-17)
(5.48375 0.109406 -1.40938e-17)
(7.04383 -0.00335007 0)
(7.28823 0.313846 -8.39088e-18)
(7.51127 -0.101151 -6.33218e-17)
(5.34948 0.0241223 0)
(7.0004 0.0103722 -3.87433e-17)
(7.02988 -0.0195412 7.90743e-17)
(7.30975 0.00785145 0)
(5.62944 0.0456722 -8.00634e-18)
(8.02158 -0.13359 8.11694e-17)
(7.43574 0.0498997 0)
(4.74503 -0.149936 0)
(8.48204 0.0408725 0)
(7.25374 -0.0599492 4.26291e-18)
(7.16825 -0.113146 -6.01023e-17)
(4.4852 0.140857 -9.26977e-17)
(7.87613 -0.0985857 0)
(6.77211 -0.000450607 -4.45274e-17)
(6.60061 0.0704084 4.00026e-17)
(7.66881 0.157977 -1.84244e-17)
(7.71315 -0.00872329 5.20666e-17)
(4.68721 -0.0785932 0)
(8.14652 0.0317095 0)
(7.1232 -0.0634965 0)
(7.04409 0.0836841 -8.35315e-18)
(7.27222 -0.129399 1.03098e-18)
(7.23721 0.0152609 -7.22824e-17)
(7.22261 -0.233076 -1.04409e-18)
(7.48585 0.0146142 0)
(5.81301 0.0536733 -4.65807e-17)
(7.46815 0.031705 -3.62423e-17)
(7.75016 0.144176 -1.88903e-20)
(7.6044 0.009186 7.30548e-17)
(7.64168 -0.0917379 3.93151e-17)
(7.49153 -0.0797816 3.845e-17)
(8.25148 -0.138878 3.9888e-17)
(7.61458 0.0175139 5.24082e-17)
(7.53144 0.104019 -3.21624e-16)
(5.65335 -0.133035 3.98767e-16)
(7.03451 -0.128769 3.92241e-17)
(8.06633 0.12237 0)
(7.80362 -0.108251 -1.66832e-17)
(8.00371 -0.0979709 1.68171e-17)
(4.99867 0.112401 6.4316e-16)
(7.3575 0.0997067 -1.79147e-16)
(5.37973 -0.0940996 -9.31138e-17)
(7.11866 -0.150385 1.02003e-18)
(6.96903 0.153551 0)
(7.43352 0.191376 -3.72787e-17)
(4.65954 -0.367624 0)
(5.11419 -0.221199 -3.92569e-17)
(7.36268 0.00813006 -7.59186e-21)
(7.03517 0.040302 1.80278e-17)
(7.93849 -0.105436 9.51014e-17)
(7.54412 -0.0642588 5.05231e-17)
(3.86987 -0.702126 -4.31387e-18)
(7.0057 0.0771354 4.58343e-17)
(6.95785 0.130387 -2.64234e-17)
(7.46009 -0.0329423 2.84097e-17)
(7.19864 -0.123589 0)
(6.69096 0.0981038 0)
(7.09467 -0.224345 -1.98409e-17)
(4.67808 -0.0084533 8.62039e-18)
(3.54694 -0.570154 -2.11642e-17)
(6.52424 -0.0634077 1.21651e-17)
(7.52372 0.0486428 -3.38423e-18)
(7.01987 0.0928096 1.15118e-17)
(6.99095 0.0894574 0)
(7.35779 0.0842384 -8.03416e-17)
(7.1063 0.0921926 -6.03846e-17)
(3.58728 -0.400427 3.8773e-17)
(3.99047 -0.516545 -2.94149e-17)
(7.4995 0.00797776 5.93331e-18)
(7.58791 0.0143246 0)
(7.24543 -0.128912 -8.95328e-18)
(3.93594 0.126064 -2.65664e-17)
(7.94095 -0.17027 8.34813e-17)
(7.99969 -0.171675 -8.9443e-17)
(6.9693 0.118904 0)
(6.97527 0.131603 0)
(6.98463 0.10165 -5.25294e-17)
(6.87777 -0.29782 8.27295e-18)
(7.23191 -0.178622 1.02405e-16)
(0.41861 0.079635 -6.69561e-17)
(7.04335 0.0842391 2.38909e-17)
(6.97619 0.129211 4.0351e-17)
(8.23111 -0.19673 -1.22116e-16)
(7.19516 -0.102289 -1.06479e-19)
(7.14886 -0.136987 3.97762e-18)
(7.24658 -0.131205 7.78462e-18)
(6.65577 0.158133 -4.34201e-18)
(7.46845 -0.140063 0)
(7.20718 0.230598 -1.9255e-17)
(7.02409 0.108431 -4.69639e-17)
(6.56585 -0.264653 4.08121e-17)
(6.99954 0.00691542 0)
(6.75433 -0.254899 2.92369e-17)
(7.13884 -0.117334 -5.12863e-17)
(7.07999 0.0940531 9.4245e-17)
(7.28989 0.116611 3.82485e-17)
(7.11129 0.0558117 -3.2376e-17)
(7.25412 0.117812 7.33157e-17)
(7.03579 0.0085359 -9.54772e-18)
(7.34861 0.268881 7.9917e-19)
(7.10025 -0.160795 5.97939e-17)
(7.70339 -0.263587 -7.05478e-18)
(7.76165 -0.0387905 0)
(7.01507 -0.194752 -1.6509e-17)
(7.47455 0.265694 -2.27531e-17)
(7.21193 -0.0575175 -5.06166e-17)
(7.14815 0.187719 -8.13104e-18)
(7.36164 0.0327671 3.34447e-17)
(7.31699 0.0706269 5.6319e-17)
(7.00345 0.00646136 -3.01021e-18)
(6.62713 0.124433 -5.88971e-18)
(7.7903 0.0924991 3.3087e-17)
(7.86875 -0.111784 1.01884e-17)
(6.47814 0.19716 0)
(6.94811 -0.0963571 1.31276e-17)
(7.37686 -0.0746143 2.43542e-17)
(7.02476 0.0593697 3.64911e-17)
(7.07459 -0.0103399 2.21727e-17)
(7.69285 -0.18425 -3.642e-17)
(7.92666 -0.0939633 3.795e-18)
(7.9475 -0.129901 0)
(7.70041 -0.135594 -6.92238e-17)
(7.22867 0.102973 1.88543e-16)
(6.90022 0.151997 -6.33663e-16)
(7.65395 -0.169782 0)
(7.76185 -0.17676 0)
(7.74776 -0.156377 7.04343e-18)
(7.68705 -0.166915 0)
(7.17708 -0.0671286 0)
(7.06711 -0.0130715 -5.72171e-17)
(7.50027 -0.180727 2.08261e-17)
(7.75625 -0.109148 0)
(7.67527 -0.157023 0)
(7.59292 -0.118978 -1.16876e-17)
(4.44271 -0.0231268 -3.6116e-17)
(4.12892 0.0974956 7.12099e-18)
(7.49462 -0.138807 0)
(7.30426 -0.163892 1.7452e-17)
(1.30911 -0.111445 -4.12905e-17)
(6.94198 0.0274737 -1.54799e-16)
(6.7915 -0.018189 7.91048e-17)
(1.29378 -0.0653207 0)
(1.27596 0.0230058 0)
(4.99871 -0.0788735 -2.21358e-17)
(6.92519 0.11679 -3.24343e-17)
(6.58623 -0.0301274 1.50556e-18)
(8.23297 0.0567621 -3.65039e-17)
(7.02959 0.128794 -1.04585e-17)
(7.01935 0.110986 -8.64548e-19)
(7.03377 0.0789707 5.3905e-18)
(6.98382 0.12368 1.97016e-17)
(6.98623 0.0976828 1.44678e-17)
(8.32418 -0.125082 1.03198e-16)
(6.8991 -0.119486 7.7198e-17)
(6.71808 -0.203804 -4.08708e-17)
(5.19565 0.0274547 -4.44221e-17)
(7.07708 0.0690666 2.21031e-17)
(7.03819 0.0951579 4.67322e-17)
(7.61305 0.156441 0)
(1.36581 0.0212097 6.19808e-17)
(1.74971 0.0140558 0)
(7.73615 0.19154 7.2626e-18)
(8.07734 -0.0717664 0)
(7.6325 0.447561 -1.35069e-17)
(7.59883 0.278939 -1.40511e-16)
(6.97445 0.0894073 0)
(6.79511 0.112913 4.68573e-17)
(6.89806 0.0905237 6.91702e-17)
(7.36595 0.0837889 3.30592e-16)
(7.0903 -0.17453 -5.72922e-17)
(6.88388 -0.240201 -3.12692e-17)
(7.12037 -0.0110658 4.21008e-17)
(7.30976 0.0279863 -2.35791e-17)
(6.37825 -0.126938 -6.35933e-17)
(6.80852 0.0910065 -1.38813e-16)
(7.27123 0.211514 3.0205e-17)
(7.17261 -0.208812 -5.13919e-17)
(7.25806 -0.183778 -4.97762e-18)
(7.19721 -0.156691 -2.61068e-17)
(7.27498 -0.133324 1.64959e-17)
(7.4519 -0.13987 0)
(7.65789 -0.0015413 -9.92571e-17)
(8.2869 -0.0671033 -3.13014e-17)
(6.89871 0.0109832 4.83039e-17)
(7.42677 -0.0562421 -3.7447e-18)
(7.00128 0.0529379 -6.01957e-17)
(7.31796 0.052657 0)
(7.60243 -0.0163633 7.09657e-18)
(7.45396 -0.123146 -7.04271e-18)
(7.79542 0.163335 -2.81399e-17)
(6.99037 0.227945 -1.80172e-17)
(7.00369 0.0227116 0)
(7.00158 0.0440236 4.91265e-17)
(7.38562 -0.0829884 -1.17303e-17)
(7.25897 -0.0579595 1.09062e-17)
(6.80301 -0.0850569 4.14887e-17)
(6.9307 -0.0775066 0)
(6.50633 -0.22985 0)
(7.75898 -0.11218 -2.08635e-17)
(7.58899 -0.129929 8.35672e-18)
(7.81783 0.0779823 -7.76111e-18)
(8.01457 -0.0777086 5.85653e-17)
(2.51492 1.28347 -7.00886e-18)
(3.01274 -0.483195 7.40996e-18)
(6.11716 2.41515 -2.34655e-18)
(6.23928 2.45902 0)
(3.04181 -1.39072 1.31608e-17)
(2.9631 -1.37085 1.37743e-17)
(7.52279 -3.73849 4.46314e-18)
(6.63077 1.12322 1.50782e-17)
(7.7061 -1.41171 2.41286e-19)
(4.3027 -0.7453 -2.12002e-17)
(6.61965 1.62768 9.91113e-19)
(5.20162 -1.39918 -1.54908e-17)
(3.95905 -0.734032 0)
(7.0924 -0.311943 -7.09506e-18)
(3.27309 -0.469002 -2.22351e-17)
(4.06385 -1.39446 -1.45479e-18)
(0.604266 0.289449 7.18188e-17)
(7.75947 -1.36714 2.95063e-19)
(4.16398 0.158559 2.5292e-18)
(6.12313 -3.46392 1.25622e-18)
(3.97318 -0.430524 -3.68293e-19)
(4.06512 -1.47282 0)
(6.51286 -3.12805 1.52114e-18)
(6.75154 -3.28027 5.93068e-18)
(6.5818 -3.77564 2.41294e-18)
(6.6654 -3.7612 -1.46451e-18)
(6.28512 2.18924 -1.7838e-18)
(6.23032 2.29307 1.94313e-18)
(0.698642 -0.363719 0)
(3.19206 -1.36148 2.7047e-18)
(3.10383 -1.3072 -1.90044e-17)
(4.33137 -0.79094 1.90629e-17)
(6.20853 -1.69113 -1.02427e-17)
(6.63273 2.7096 2.85313e-19)
(6.10107 2.72907 1.0708e-19)
(6.05487 -4.05706 1.80777e-18)
(1.56413 0.605417 -1.6976e-17)
(6.07562 2.36055 -3.17138e-18)
(6.78841 -1.93051 0)
(6.91081 -1.83786 2.361e-20)
(6.87017 1.73807 -3.24778e-19)
(6.79543 1.73901 0)
(6.47862 1.95634 -2.34314e-18)
(6.52685 1.99813 0)
(6.537 0.998256 0)
(6.70052 1.82884 -1.2043e-18)
(6.75992 1.82465 1.04326e-18)
(3.28978 -0.598964 3.08133e-17)
(3.40014 -0.64497 3.01863e-17)
(5.9248 2.66502 -2.2415e-18)
(6.24904 2.45774 0)
(6.22711 2.46539 0)
(7.43044 -3.1605 4.25007e-18)
(7.32837 -3.47333 7.03911e-18)
(4.19303 -0.617192 0)
(4.20329 -0.322305 0)
(6.07808 -3.79265 1.84675e-18)
(5.0139 -1.17519 3.8439e-17)
(4.48249 -1.01513 -1.07646e-17)
(3.88827 -0.745057 -3.47424e-17)
(3.66548 -2.17713 3.18802e-18)
(6.30814 2.11658 0)
(3.61353 -1.5799 -3.76423e-18)
(6.20905 2.45197 3.79707e-19)
(6.23789 2.33789 -4.7727e-19)
(3.24741 -1.26741 9.72444e-18)
(6.79367 -0.386889 0)
(6.02189 -3.84179 0)
(2.92209 0.0283737 0)
(6.64921 -4.16874 1.76556e-18)
(6.64783 -4.12452 -8.52923e-19)
(6.04836 -3.90204 0)
(6.11513 -3.91287 -3.56149e-18)
(6.01412 -3.96494 1.81261e-18)
(4.07745 -0.409318 1.23656e-18)
(4.10571 -0.553249 2.41708e-21)
(6.91747 -3.0723 -2.57387e-19)
(6.21976 2.19138 3.08977e-19)
(6.19176 2.25575 4.72741e-18)
(6.71816 -3.47843 3.11103e-18)
(6.89307 -4.2549 0)
(3.17899 -1.50651 -7.38007e-18)
(3.12024 -0.317854 0)
(6.14295 2.25561 -5.07177e-18)
(6.12878 2.29227 0)
(6.11137 2.199 0)
(7.06948 0.247865 -1.89557e-17)
(4.19057 -0.400009 -3.34451e-18)
(4.19619 -0.543751 -3.70584e-18)
(6.59865 0.497899 -7.59132e-17)
(6.70557 0.381898 -4.79262e-17)
(4.09196 0.876226 2.05078e-18)
(4.06111 1.02285 -2.55662e-18)
(6.69668 -4.09841 0)
(6.28037 -3.73934 1.5883e-19)
(6.27504 2.38566 0)
(6.339 2.34895 0)
(6.31092 2.32664 0)
(6.30938 2.40004 0)
(3.08762 -1.19601 -5.44115e-18)
(5.93829 -3.96973 0)
(3.07445 -0.494576 9.94959e-18)
(3.15889 -0.490253 -6.37075e-18)
(3.12624 -0.414478 -1.76341e-17)
(3.11202 -0.536425 -5.18257e-18)
(6.4187 2.25716 5.08513e-19)
(6.37637 2.22868 3.71163e-18)
(6.78083 -4.17764 1.78669e-18)
(6.22917 2.4116 3.48827e-19)
(6.64761 1.51978 9.11731e-18)
(7.45868 -0.436151 0)
(7.01317 -2.5637 1.85556e-17)
(7.32335 -2.95252 3.94053e-18)
(6.546 -2.19155 0)
(7.0631 -0.343998 2.96399e-18)
(3.29392 -0.345038 0)
(3.31223 -0.120442 0)
(5.75793 -0.772572 0)
(0.625426 -0.194051 6.50611e-17)
(6.8187 -2.77663 -5.87254e-19)
(2.85793 -1.90068 -1.11936e-18)
(7.21579 -2.78235 0)
(3.10044 -0.643732 4.58415e-18)
(3.09326 -0.842673 9.8709e-18)
(6.25763 2.43899 -7.4189e-20)
(6.24788 2.42183 -1.29578e-20)
(6.28404 2.42914 1.06296e-19)
(6.19281 0.327203 -7.7631e-17)
(3.50248 -0.167719 3.01952e-17)
(3.37419 -0.324267 2.17425e-18)
(3.51967 -0.327575 -3.34667e-17)
(3.39029 -0.159306 -2.2859e-18)
(6.99017 0.169592 1.96613e-17)
(7.0481 -0.249027 -3.06647e-18)
(3.53962 -0.0985759 -2.43473e-17)
(3.82055 0.0480785 -5.7965e-18)
(3.78888 -0.122058 1.06769e-18)
(3.68807 0.614657 0)
(3.89093 0.360328 2.58777e-17)
(3.01527 -1.1838 0)
(2.99966 -1.08828 6.42215e-21)
(6.609 -0.560881 7.63981e-18)
(6.66015 -0.355161 3.21632e-18)
(6.21977 2.32974 -5.04244e-19)
(6.24776 2.37506 5.30645e-19)
(3.62601 -0.287681 1.82508e-17)
(6.38309 2.35669 0)
(6.4154 2.3135 0)
(6.39781 2.42869 0)
(7.03115 -3.5229 6.40689e-18)
(7.23842 -3.56706 0)
(2.92702 -0.463756 -6.3457e-18)
(7.13103 -2.96147 -6.17699e-18)
(6.86212 -3.15963 6.48612e-18)
(6.73479 -4.21389 0)
(6.6827 -4.17206 -1.86267e-18)
(6.74314 -4.17349 7.78666e-20)
(6.68079 -4.22161 0)
(6.72439 0.279511 0)
(6.62283 -3.63382 6.63504e-20)
(6.68865 -3.7117 1.48339e-18)
(6.72616 -3.57316 -1.50002e-18)
(6.43656 -0.416476 -4.02138e-17)
(6.45509 -0.534292 5.46445e-17)
(6.52161 -0.359321 -6.1284e-17)
(3.15028 -0.26856 5.50385e-18)
(3.23959 -0.171833 -5.67221e-18)
(3.17044 -0.168731 -2.86792e-18)
(3.23011 -0.27543 2.75318e-18)
(4.40769 -0.41532 -3.11431e-17)
(4.18456 -0.529847 1.08638e-18)
(4.30966 -0.546645 0)
(4.34302 -0.317772 1.891e-17)
(6.84134 0.562523 1.8121e-17)
(3.26491 -3.08674 4.04548e-18)
(3.45528 -2.90234 1.77738e-18)
(3.39335 -1.8269 6.26768e-20)
(3.24409 -1.86431 -5.1716e-18)
(3.13704 -0.144137 -5.05446e-18)
(3.14261 -0.0265594 5.41747e-18)
(3.04566 -0.165265 0)
(4.15299 0.482464 0)
(3.88987 0.773272 9.05239e-18)
(4.34949 -0.237987 0)
(4.14307 -0.0287183 0)
(4.06986 -0.219161 0)
(4.36479 -0.107242 0)
(6.90016 -1.65975 6.55309e-20)
(6.89909 -1.72492 0)
(6.39902 -3.56562 1.41499e-18)
(6.43453 -3.67079 0)
(6.51367 -3.59698 2.16641e-19)
(6.35537 -3.59484 -4.27593e-18)
(4.02828 1.09758 0)
(6.45359 -3.21522 -5.84504e-18)
(6.2404 -3.37932 0)
(4.07196 1.58256 -1.16282e-18)
(4.1146 1.12337 0)
(3.73962 -0.385882 -2.41397e-17)
(3.97748 -0.234454 0)
(3.82453 -0.191685 0)
(3.95527 -0.384766 2.97313e-17)
(3.4329 -1.1479 4.1645e-17)
(3.37476 -1.27399 -1.49372e-17)
(6.92864 0.13766 -4.79557e-18)
(6.57654 -0.0626482 9.19282e-17)
(6.53333 -0.169443 0)
(6.49047 -0.125924 9.15722e-17)
(6.61424 -0.14746 0)
(3.37479 -1.04264 -1.80512e-17)
(3.45103 -0.904813 0)
(3.25349 -1.00337 0)
(4.48242 -1.09507 -2.50377e-17)
(4.6458 -0.725314 -1.12635e-17)
(4.46346 -0.825071 1.16393e-17)
(6.419 -3.80498 1.20338e-18)
(6.43616 -3.72409 1.97192e-18)
(6.50066 -3.74942 -1.24884e-18)
(6.38068 -3.74456 -2.70147e-18)
(6.97308 -3.45852 -8.19191e-18)
(6.82963 -3.32754 -5.26613e-18)
(7.0113 -3.36415 1.87569e-18)
(6.79959 -3.43544 -3.77161e-18)
(4.05278 -1.04312 0)
(4.04828 -1.13286 0)
(3.99122 -1.03522 -3.65827e-19)
(6.09455 2.78712 4.43735e-20)
(7.34606 -0.181264 -2.89836e-17)
(7.16532 -0.211904 3.35977e-18)
(7.2394 -0.201368 1.80427e-17)
(7.27269 -0.183468 -1.22459e-17)
(6.35262 2.92943 -8.35977e-20)
(5.25833 -0.147218 5.1328e-17)
(6.10593 2.36322 -1.65948e-18)
(6.1193 2.39032 -7.74266e-19)
(6.13934 2.3293 1.3782e-18)
(3.43586 -1.40045 0)
(3.35678 -1.5524 0)
(3.62132 -1.41904 2.59734e-17)
(6.15102 -1.35213 5.7846e-18)
(3.56568 0.37098 0)
(3.73747 0.372176 2.54173e-19)
(3.66697 0.292377 0)
(3.64225 0.502918 -1.07675e-17)
(6.93744 0.429266 2.30876e-17)
(3.10301 -0.92645 2.87146e-18)
(3.00962 -1.03706 -6.47566e-18)
(3.01447 -0.96609 3.41847e-18)
(3.10327 -1.0215 0)
(8.02613 0.19565 -6.47273e-17)
(0.553038 -0.088419 1.26931e-16)
(7.74444 -0.341457 4.43129e-17)
(8.06846 -0.0255895 0)
(1.84647 -0.161005 -3.27964e-17)
(7.08483 0.286867 -1.68461e-17)
(4.66427 0.06274 -8.00047e-17)
(6.99737 0.0211572 3.59722e-17)
(7.0074 0.107507 -2.33023e-17)
(7.00661 0.0821561 -4.66725e-17)
(7.95781 -0.223773 0)
(3.47268 -0.436493 -3.20911e-18)
(6.75816 0.281757 0)
(6.80241 0.235448 1.81629e-17)
(6.06868 -0.0884674 0)
(6.315 0.190574 -9.05096e-17)
(6.20716 0.235965 4.807e-17)
(6.51342 0.0742993 2.55261e-17)
(6.44245 0.1172 0)
(3.06583 -0.287494 6.41733e-18)
(6.91845 0.175673 -4.29885e-17)
(6.89636 0.209109 -4.7391e-17)
(5.41286 -0.17065 -3.17704e-17)
(6.95776 0.294641 1.77594e-17)
(6.94698 0.346756 1.19276e-17)
(2.92785 0.530023 2.69151e-17)
(7.00934 0.0751693 4.12668e-17)
(7.69104 0.330765 -1.91057e-17)
(0.393613 0.109225 -8.38335e-17)
(7.00006 0.143069 -1.33981e-17)
(6.97013 0.228649 2.87399e-17)
(7.19006 0.279763 0)
(5.44677 -0.330469 -6.31122e-17)
(7.39483 -0.203228 9.0822e-17)
(3.19683 -0.314603 3.34482e-18)
(3.40214 -0.234692 -1.72382e-17)
(6.88968 0.874549 1.2295e-17)
(7.01206 0.118039 3.07956e-17)
(7.31892 -0.248637 -2.4056e-17)
(7.37478 -0.265023 -8.39838e-17)
(7.32445 -0.319175 2.75579e-17)
(7.61248 -0.193761 4.07528e-17)
(6.57526 -0.397025 7.08274e-18)
(6.55458 -0.497743 -9.75973e-18)
(7.11339 -0.179064 8.31045e-19)
(7.09805 -0.217964 2.3311e-17)
(7.0546 0.206328 -9.99328e-18)
(6.36823 -0.287962 -6.90709e-17)
(6.71165 -0.410104 0)
(6.68407 -0.524511 0)
(6.98072 -0.154318 -4.94459e-18)
(6.87799 -0.161002 0)
(0.374235 0.108668 0)
(3.0786 0.483915 1.57518e-17)
(7.55169 -0.145828 3.151e-17)
(7.63545 -0.120106 5.66478e-18)
(7.2523 0.394655 1.84723e-19)
(7.07378 -0.220661 0)
(7.13405 -0.189466 0)
(6.69933 0.225731 -1.71599e-17)
(7.57128 -0.37826 0)
(7.00246 0.0687251 -2.20603e-17)
(6.99697 0.085608 7.9401e-17)
(7.01195 0.175705 -3.06734e-18)
(7.29716 -2.77269 1.36735e-17)
(6.86756 -2.31867 -1.07934e-17)
(6.87179 -2.21074 9.94189e-18)
(5.6863 0.0839162 3.84201e-17)
(7.00977 0.151181 0)
(4.9366 -0.112499 -2.30796e-16)
(7.36279 -0.34725 0)
(6.69124 -0.0706962 -2.44478e-17)
(6.45695 -0.0783376 1.1571e-17)
(6.33489 -0.0809769 1.141e-17)
(7.10912 0.327851 -2.74865e-17)
(3.11188 -0.54587 0)
(7.46196 -0.370955 8.08673e-18)
(7.41727 -0.337875 -3.83205e-17)
(4.77547 -0.144843 0)
(4.9667 -0.134114 0)
(2.96416 -0.942133 9.10072e-20)
(7.80471 0.226948 -9.59733e-18)
(7.22267 0.217303 -4.01341e-17)
(7.29197 -0.0337176 0)
(8.35914 -0.0584606 -1.05783e-16)
(7.15983 0.363652 0)
(7.12603 0.322637 1.31794e-17)
(6.94468 0.190396 -3.20246e-17)
(4.76308 -0.510493 0)
(8.15456 0.104444 -4.02226e-17)
(7.94801 0.182745 -8.42293e-17)
(5.9761 0.0254773 4.80144e-17)
(5.82455 0.0961163 -5.62244e-17)
(7.34048 0.0931438 -1.36901e-17)
(6.37079 2.09797 1.50321e-18)
(6.40504 2.00586 -1.64142e-18)
(5.98455 -0.135791 -1.98927e-17)
(7.00073 0.0207211 0)
(6.97835 -0.316519 -2.40133e-18)
(7.05606 -0.246292 -2.43155e-18)
(7.00013 -0.273947 0)
(8.14059 -0.0289181 1.27038e-17)
(8.06971 0.0325742 -2.54017e-17)
(3.95978 0.486186 0)
(3.84678 0.646531 1.97882e-17)
(6.40902 2.14027 2.62386e-18)
(6.49225 2.09486 -2.42318e-18)
(6.78806 0.0437459 1.44961e-16)
(6.57262 0.0463952 5.33898e-17)
(0.700729 0.151143 1.07741e-17)
(5.15224 -0.0494509 5.36343e-17)
(7.07469 -0.00729674 -9.65086e-17)
(6.94497 0.13477 -3.92554e-17)
(6.87853 0.154414 6.4124e-17)
(6.82989 0.188293 -5.63565e-17)
(7.00953 0.054401 0)
(7.00207 0.0431537 -1.1126e-17)
(6.92352 -0.350465 2.41026e-18)
(6.92971 -0.296296 -8.29743e-18)
(7.00164 -0.25678 0)
(3.65435 -1.32997 -2.84358e-17)
(3.55806 -1.16124 -8.03808e-18)
(3.6484 -1.03449 0)
(6.88536 0.173071 -6.76183e-17)
(6.85006 0.240528 -3.73399e-17)
(6.87284 0.207644 4.44632e-17)
(6.82036 0.25554 6.05766e-17)
(7.82925 0.344512 1.01236e-16)
(7.78146 0.29946 -4.3677e-17)
(7.8259 0.226744 0)
(6.80652 -0.0828789 2.85212e-17)
(3.07204 -1.52165 -7.22753e-18)
(6.61339 0.102571 -2.55917e-17)
(6.5774 0.150066 4.33643e-18)
(6.9486 0.0588946 1.10724e-16)
(7.27245 -0.0825035 1.34334e-16)
(3.64904 -1.59525 0)
(3.45207 -1.6803 4.68506e-18)
(5.65755 -0.0441237 -9.09457e-17)
(5.49318 -0.0613598 3.75909e-17)
(7.37743 0.102979 0)
(6.83963 -0.0837891 8.43237e-17)
(7.52004 0.0775831 -4.73922e-17)
(7.33803 -0.162134 0)
(7.48906 -3.46021 8.63439e-18)
(7.44972 -3.24074 -8.75751e-18)
(5.08768 0.0642393 0)
(5.25096 0.00652129 -4.88843e-17)
(5.39733 0.0749868 3.31482e-17)
(4.24442 0.291895 0)
(4.40604 0.250045 2.14794e-17)
(6.86159 0.274231 -1.5436e-17)
(6.84947 0.315148 -1.40469e-17)
(6.82093 0.329213 0)
(7.94907 -0.207347 -7.2026e-17)
(7.05408 0.0100607 0)
(6.96899 -0.00547636 -3.85394e-17)
(6.50501 -0.00382196 -1.66112e-16)
(6.34317 -0.0742008 0)
(6.41056 -3.21867e-05 9.94844e-18)
(7.11577 0.251419 1.83024e-17)
(7.12028 0.287282 3.38904e-18)
(6.23166 -0.0533132 0)
(6.21425 0.0423773 -2.44829e-17)
(6.10708 0.0956728 -1.12585e-16)
(7.01319 0.0295254 0)
(7.52974 -0.345162 0)
(7.66168 -0.296798 0)
(7.6625 -0.26928 0)
(0.75656 -0.102992 -5.42779e-17)
(2.98898 0.473598 -7.50801e-18)
(7.11372 -0.246513 0)
(7.0799 -0.28505 1.2365e-17)
(7.04277 -0.279063 -7.81979e-18)
(3.6717 -0.733109 6.10041e-18)
(3.59105 -0.891533 0)
(7.71928 -0.121366 7.9531e-18)
(7.9742 0.0719919 6.49521e-17)
(7.715 0.149051 0)
(9.71191 0.439751 1.13375e-18)
(9.66111 0.505454 0)
(5.9926 1.13413 1.5983e-19)
(6.54581 -4.4356 1.36901e-20)
(6.65581 0.558232 -7.03276e-17)
(3.88271 0.358071 1.99919e-18)
(6.51577 1.13904 -3.18485e-20)
(2.95494 0.504392 6.69186e-18)
(3.86078 -0.676993 0)
(6.10919 3.12656 1.65742e-19)
(5.49006 -3.14766 0)
(5.51913 -3.22879 0)
(7.18197 -4.30232 0)
(6.27005 2.19994 0)
(6.27185 2.18451 3.41004e-20)
(6.1151 2.33148 0)
(6.11168 2.3552 -1.93587e-21)
(6.14026 0.721758 0)
(7.92207 0.268576 -5.21394e-19)
(7.00613 -2.15415 0)
(3.72431 -2.28872 1.64942e-18)
(4.31919 0.218315 2.58368e-19)
(6.18538 -2.18136 7.11667e-20)
(6.22875 -2.23293 -8.96343e-20)
(7.00295 -4.32482 -1.99085e-19)
(7.01122 -4.32999 0)
(6.94809 1.02685 0)
(8.38564 0.928242 0)
(1.526 -1.68165 4.22152e-17)
(2.82962 0.0868192 -2.19186e-18)
(2.46845 -2.86045 -5.92188e-18)
(2.36671 -2.81146 0)
(6.47997 2.70972 1.55108e-20)
(7.451 0.767772 0)
(7.43924 0.809469 0)
(4.87751 0.946695 0)
(3.45211 -2.7447 0)
(7.43946 0.513869 -2.98575e-20)
(2.60164 -0.863906 -5.13877e-18)
(7.18726 1.23749 3.07439e-20)
(3.53596 -1.91175 -2.13166e-18)
(6.10357 0.739174 -1.40176e-22)
(4.23152 1.04976 0)
(4.20687 1.00949 0)
(6.50839 2.92273 0)
(8.03588 0.17006 -5.0708e-19)
(6.80756 -4.3734 9.95373e-19)
(3.18099 -3.71639 2.18417e-18)
(3.31187 -3.43229 2.82736e-20)
(6.98603 1.01767 0)
(8.49863 -0.576298 0)
(6.05447 3.15283 -4.16079e-19)
(6.00645 3.11288 0)
(6.03053 2.92078 6.62726e-19)
(6.68687 -0.744374 1.95784e-17)
(8.00166 0.496568 0)
(7.30966 0.939647 -6.9335e-20)
(6.68687 -0.838597 2.30519e-17)
(6.05825 3.51409 -2.3964e-21)
(6.798 -2.09917 -6.54228e-20)
(6.79224 -2.05125 7.87775e-20)
(7.14233 -4.25401 9.17732e-19)
(7.16117 -4.24258 3.1463e-18)
(7.43815 0.665065 -5.04085e-20)
(7.44482 0.606639 -1.40423e-20)
(8.66476 -0.280831 1.41239e-18)
(6.2145 2.17036 0)
(6.25197 2.17657 -3.17014e-20)
(8.95759 0.99978 2.02471e-18)
(6.47152 0.961908 2.97107e-20)
(6.13681 -4.31211 2.33094e-18)
(5.51116 -3.04425 -2.17236e-18)
(5.84888 3.08372 -3.17337e-20)
(6.3905 -2.35229 2.60658e-20)
(7.8107 0.197843 0)
(6.04545 -2.44812 4.50066e-18)
(6.40448 0.905947 -7.69853e-18)
(6.28346 -1.49255 0)
(4.12102 -1.43188 3.18847e-17)
(9.07426 0.0271272 2.99151e-20)
(3.3399 2.20238 -2.52682e-18)
(5.71691 2.4818 1.42677e-18)
(5.66653 2.44574 -1.39409e-18)
(7.2954 1.11184 0)
(3.9665 -0.81219 -3.51364e-19)
(3.98536 -0.978938 -3.25369e-19)
(6.22669 2.32217 1.9475e-19)
(6.26625 -2.33886 6.298e-20)
(4.31745 1.75464 -2.64374e-19)
(2.96269 -0.0781822 6.41899e-18)
(3.03124 0.0864546 1.15474e-17)
(7.3583 -1.37454 2.40006e-19)
(6.18074 0.941642 1.25789e-19)
(6.207 0.965393 -2.04401e-19)
(6.37023 -4.45728 -1.23555e-18)
(6.2946 -4.45568 -2.62781e-20)
(8.38795 0.269758 3.8567e-19)
(8.38562 0.321338 2.76747e-19)
(7.2066 -1.673 0)
(7.06081 0.494767 -8.76846e-21)
(4.26413 1.42996 1.38468e-18)
(4.34023 1.34199 1.80705e-18)
(7.03635 3.315 1.17703e-19)
(7.15559 0.621879 -3.17009e-20)
(5.7499 -4.17946 -1.264e-18)
(6.23283 3.28676 2.90816e-20)
(6.31029 3.1753 1.01492e-21)
(4.54154 -0.261229 -1.44563e-18)
(4.71834 -0.342846 -6.99139e-19)
(7.90513 -0.873234 0)
(6.68568 0.566528 1.09366e-19)
(7.97271 0.693557 0)
(7.85145 0.65213 2.25249e-19)
(6.49628 0.691323 -1.74658e-19)
(4.17477 -1.48431 0)
(4.11597 -1.50603 0)
(6.3562 0.924504 2.52067e-20)
(7.6196 0.165955 -1.23501e-19)
(7.27792 -4.24361 0)
(5.61606 1.18735 0)
(7.67529 -3.65203 0)
(6.63377 -4.47319 6.72028e-19)
(6.61953 -4.49551 1.20883e-18)
(4.54349 0.178705 1.81623e-18)
(4.56242 0.11123 -1.63211e-18)
(3.70025 -1.13926 -3.74844e-19)
(8.43124 -4.55539 1.06182e-18)
(7.96994 -2.71824 1.23756e-19)
(1.20747 -3.34054 4.71317e-18)
(8.05306 -3.85933 4.60854e-19)
(5.93869 2.11932 -1.05478e-19)
(6.18561 2.45216 5.43407e-19)
(7.53232 -0.610479 -3.06034e-19)
(7.64048 -0.603154 1.29888e-19)
(5.79589 2.93663 7.05846e-20)
(4.02465 -0.643424 1.3777e-18)
(3.90355 -3.05425 6.66817e-18)
(6.64678 1.10799 0)
(9.36395 -2.11327 2.31743e-18)
(7.56868 0.900741 1.87577e-19)
(7.036 -1.14138 0)
(6.72708 0.667753 3.98791e-20)
(6.20639 1.94563 6.7497e-19)
(6.16367 1.90596 -1.38598e-18)
(8.20472 -0.425463 4.41478e-19)
(8.18483 -0.336704 -8.02838e-19)
(5.97514 -2.65446 -3.4475e-19)
(4.39045 0.6946 -9.31434e-19)
(6.35161 2.35086 -8.98836e-20)
(6.4119 3.06298 -1.77384e-21)
(7.27002 1.06077 1.85628e-20)
(5.97318 1.06608 1.5483e-19)
(6.98794 0.562665 0)
(2.41239 -1.93141 0)
(3.85647 -0.590373 0)
(8.18745 1.60325 1.2956e-19)
(7.82826 -0.71974 2.31992e-19)
(7.13135 -1.67459 -1.42389e-19)
(6.98047 -1.72596 0)
(4.76717 0.0206235 -1.65882e-18)
(4.82198 0.00989233 0)
(5.51157 -3.53144 -1.54954e-19)
(5.62789 -3.57217 -8.02617e-19)
(6.71188 -1.0247 0)
(8.42999 -0.133679 0)
(8.41609 -0.0813858 0)
(7.06736 -4.30979 0)
(7.0308 -4.32335 0)
(6.53595 2.52022 7.84351e-21)
(6.52548 2.95842 -5.05628e-21)
(6.51651 2.99651 1.25518e-20)
(6.30986 2.34922 -1.09056e-19)
(7.38629 -1.52096 2.55435e-19)
(7.25074 -1.60805 1.00051e-19)
(7.03041 3.36783 -2.62792e-19)
(5.72291 1.14129 0)
(5.91287 1.06503 3.03936e-19)
(5.92217 1.01977 1.56018e-19)
(7.28467 0.802156 1.55942e-19)
(7.38898 0.814919 -1.43045e-19)
(7.69539 -4.32601 4.67612e-18)
(7.74824 -4.28236 0)
(6.05409 2.32495 -2.89856e-20)
(7.12058 -1.03485 1.01925e-19)
(7.09924 -1.13038 0)
(3.00073 0.617434 -6.95042e-18)
(2.964 0.575903 7.89617e-18)
(2.99615 0.73473 -3.53753e-18)
(6.93426 -4.25759 1.10835e-18)
(6.06602 -0.251105 0)
(6.30338 -0.916252 0)
(5.86734 0.589786 3.99039e-19)
(5.87564 -2.15039 0)
(4.49626 0.664031 -1.01121e-19)
(4.56247 0.560296 1.23984e-18)
(7.28729 -3.87063 4.29065e-18)
(7.46375 -0.606088 -3.56288e-19)
(6.22448 2.2344 -1.708e-19)
(7.24442 1.70588 8.63913e-20)
(8.2809 -0.755171 0)
(8.36428 -0.616123 0)
(6.15903 0.35911 9.94349e-21)
(7.22337 -2.00454 3.65677e-19)
(6.69502 -4.50036 -2.80787e-19)
(6.49448 1.51481 8.9123e-19)
(7.87998 0.623872 0)
(7.95376 0.643567 0)
(6.44469 -4.3865 6.9712e-19)
(6.53891 -4.3844 0)
(7.37087 -4.65535 -9.37755e-19)
(4.69639 0.347368 0)
(4.5299 -0.193469 2.40181e-19)
(3.35235 -3.26249 0)
(6.32813 2.23677 1.05846e-19)
(6.50524 -4.51848 0)
(6.31766 2.27515 5.11477e-20)
(6.35691 2.30803 -8.96692e-20)
(5.44253 -3.28154 3.21351e-19)
(5.2782 -3.36361 0)
(7.72172 -1.0915 0)
(7.66933 -1.13914 0)
(8.18707 1.16528 0)
(6.29895 2.26202 -5.37674e-20)
(6.26561 2.22816 1.66896e-19)
(6.35435 2.28603 -5.7706e-20)
(6.37558 2.28214 4.98083e-20)
(6.33937 2.27046 7.5692e-22)
(7.50848 0.607539 -1.30883e-19)
(4.90591 0.913397 0)
(9.29126 -2.16057 9.91431e-19)
(6.48275 2.74467 6.59084e-21)
(6.28716 2.55384 -2.76611e-19)
(6.25505 2.56357 0)
(6.00439 -4.38979 -4.85633e-19)
(6.0012 -4.42429 4.95233e-19)
(6.80992 0.994927 -8.12739e-22)
(4.20367 0.647255 -4.59141e-20)
(5.22714 -1.65991 -1.82286e-17)
(4.8688 -1.33883 2.01789e-17)
(5.94682 -2.01035 1.49898e-18)
(6.22202 1.03749 1.38041e-19)
(3.8576 0.293865 -3.2169e-18)
(6.09063 2.2874 -1.48192e-19)
(6.44898 2.34463 1.21781e-20)
(8.15346 -4.46564 -1.35553e-18)
(4.39377 1.22629 0)
(4.91791 -0.390724 -9.54457e-19)
(6.0802 2.3722 4.72883e-19)
(6.09265 2.35819 -6.42034e-19)
(6.05709 2.36119 -1.36376e-19)
(6.52223 -2.00356 4.13289e-20)
(7.12121 -1.40612 0)
(8.07571 -4.21742 1.32546e-18)
(6.88457 -1.41234 2.51406e-20)
(6.76884 -1.48436 2.75997e-20)
(7.77868 0.63859 1.62419e-19)
(6.88796 -4.29923 -2.50403e-21)
(6.81619 -4.33085 0)
(6.01104 -3.28445 7.35202e-19)
(7.57135 -4.48064 3.83862e-19)
(6.48629 -3.10784 1.49491e-19)
(6.75233 -4.45181 1.00362e-18)
(8.31767 -1.31725 -9.27381e-20)
(3.30967 -3.23425 -1.89435e-18)
(3.37373 -3.28614 -6.87613e-21)
(1.71038 -1.43729 1.61796e-17)
(6.82739 -4.30925 3.39246e-19)
(6.80092 -4.29495 0)
(6.86304 -4.29116 -3.7878e-19)
(2.8463 0.719562 -9.89479e-18)
(4.53918 0.888627 -4.31445e-19)
(4.53721 0.947445 2.2345e-18)
(6.30129 -1.65398 0)
(6.78388 -4.33821 8.78127e-19)
(8.05226 -0.853618 -1.56126e-19)
(8.14708 -0.805698 -1.86279e-19)
(6.40831 -0.440678 -1.72736e-19)
(7.54306 0.81999 1.2805e-19)
(5.44907 2.99644 -4.9143e-19)
(3.196 0.535185 0)
(7.56308 -3.85548 0)
(6.46065 1.59167 4.55385e-18)
(6.66603 -2.12926 3.26206e-23)
(5.90297 2.72106 1.19948e-18)
(5.90603 2.85746 -5.37995e-19)
(6.64541 -1.03583 0)
(6.62991 -1.11897 3.14312e-20)
(6.55704 -1.15638 -1.02727e-19)
(7.30376 -4.40261 1.44495e-19)
(3.34434 -1.50793 -5.53202e-18)
(6.41245 2.71626 -1.06094e-19)
(6.29252 2.82363 4.8988e-19)
(2.30784 -0.988166 -1.30432e-17)
(6.18812 2.72843 1.4136e-18)
(5.8949 -3.73731 0)
(6.25433 2.95282 6.60421e-20)
(6.21385 3.06097 -5.2364e-20)
(7.01577 -4.29657 -6.02889e-19)
(5.1211 -0.405117 -1.1477e-18)
(6.32461 3.2248 0)
(6.29119 3.28252 7.97597e-22)
(4.08345 0.229976 -1.27078e-18)
(3.50782 -2.74399 1.37329e-18)
(7.80345 0.544026 5.35538e-19)
(3.98786 1.94737 -2.43626e-20)
(5.91692 -4.25117 7.9837e-19)
(5.83093 -4.24648 -1.80288e-18)
(6.41225 2.55484 -2.93649e-20)
(6.27979 -0.546801 0)
(4.15115 -0.165643 -1.63452e-19)
(4.18561 -0.272403 0)
(4.13458 -0.256575 1.53441e-19)
(4.22383 1.45872 -1.74859e-18)
(6.38316 -1.64961 -1.42323e-19)
(6.49834 -1.60721 0)
(6.69684 -1.58545 1.2059e-20)
(6.71208 -1.50278 -2.78009e-20)
(7.25424 -1.54676 8.08244e-20)
(7.32752 -1.49592 -2.81312e-19)
(8.02297 -0.816716 -1.58822e-19)
(7.94551 -0.824702 1.58481e-19)
(8.05177 -0.719531 0)
(4.30111 0.659975 -4.46612e-21)
(4.24976 0.618314 -2.17063e-18)
(3.86559 0.437146 5.37225e-18)
(6.7441 -1.25879 6.84822e-21)
(6.71931 -1.34798 0)
(6.93816 -4.32421 3.28179e-19)
(6.98398 -4.31614 -3.16419e-19)
(6.41666 -4.17362 -4.01361e-18)
(6.44651 -4.21785 2.01925e-18)
(5.69354 -4.20903 -8.99182e-19)
(5.40513 -4.00171 -8.08807e-19)
(7.72565 0.821552 4.96283e-19)
(6.08935 -3.71144 -1.70155e-18)
(5.99107 -3.68353 1.48832e-18)
(6.57909 -0.646674 -3.73066e-17)
(6.61548 -0.732819 -2.59054e-17)
(3.89808 -2.73259 4.40285e-20)
(3.82601 -2.7306 0)
(8.17129 -1.05429 8.1493e-19)
(2.85861 -0.0474767 -2.11474e-18)