/*--------------------------------*- C++ -*----------------------------------*\
  =========                 |
  \\      /  F ield         | OpenFOAM: The Open Source CFD Toolbox
   \\    /   O peration     | Website:  https://openfoam.org
    \\  /    A nd           | Version:  6
     \\/     M anipulation  |
\*---------------------------------------------------------------------------*/
FoamFile
{
    version     2.0;
    format      ascii;
    class       volScalarField;
    location    "1500";
    object      nuTilda;
}
// * * * * * * * * * * * * * * * * * * * * * * * * * * * * * * * * * * * * * //

dimensions      [0 2 -1 0 0 0 0];

internalField   nonuniform List<scalar> 
29884
(
0.276348
0.225641
0.122062
0.155995
0.15636
0.129646
0.194469
0.263916
0.213462
0.141145
0.153475
0.141699
0.15303
0.28744
0.280063
0.191842
0.287357
0.266251
0.279548
0.172482
0.278046
0.118572
0.142525
0.140649
0.144303
0.155027
0.194369
0.219172
0.150191
0.253506
0.14866
0.162942
0.195299
0.185293
0.143752
0.147362
0.249431
0.166601
0.179344
0.187945
0.231655
0.18485
0.176332
0.200848
0.183851
0.166914
0.175621
0.176423
0.136633
0.170883
0.167684
0.174261
0.19293
0.275206
0.263306
0.267614
0.187094
0.284251
0.262168
0.266566
0.19858
0.190451
0.135278
0.171051
0.166635
0.172806
0.280473
0.204307
0.302645
0.211425
0.141248
0.149598
0.143864
0.10938
0.318011
0.280977
0.234138
0.231227
0.225943
0.21158
0.180436
0.19766
0.113509
0.142316
0.119377
0.0973443
0.148765
0.156952
0.13956
0.0721747
0.145032
0.156867
0.100616
0.0637086
0.151754
0.000400531
0.139829
0.139902
0.149681
0.0663366
0.139777
0.139243
0.16987
0.177359
0.153522
0.196419
0.07824
0.076705
0.153792
0.13897
0.162749
0.000138727
0.135897
0.11886
0.141849
0.142057
0.149604
0.111804
0.147761
0.136971
0.139772
0.141122
0.161409
0.140069
0.13695
0.26213
0.225301
0.203671
0.301065
0.147688
0.143027
0.147274
0.254208
0.237554
0.129272
0.144097
0.165758
0.152205
0.163707
0.163862
0.155627
0.162014
0.173227
0.157298
0.1709
0.173972
0.160462
0.165441
0.178561
0.173867
0.171483
0.0948531
0.0832472
0.183622
0.24898
0.215661
0.19905
0.175211
0.22952
0.201342
0.189218
0.1561
0.154285
0.172924
0.000298659
0.000295534
0.20466
0.160435
0.139507
0.139489
0.21218
0.13921
0.139043
0.114897
0.117647
0.151824
0.144031
0.188962
0.142641
0.156013
0.145695
0.128998
0.131197
0.135179
0.11753
0.132511
0.139601
0.139234
0.155547
0.150283
0.155986
0.141527
0.136692
0.143534
0.146337
0.146728
0.141196
0.146816
0.151877
0.149793
0.218063
0.177392
0.15369
0.142321
0.150033
0.136287
0.144662
0.128291
0.139559
0.18519
0.174621
0.215547
0.219215
0.194866
0.257712
0.0434626
0.101013
0.0374381
0.112351
0.0392219
0.0372254
0.0480353
0.137491
0.119754
0.0855878
0.034863
0.0408809
0.0542979
0.00639562
0.045281
0.0465663
0.0377538
0.0479035
0.0397306
0.0422018
0.0466565
0.0451881
0.138047
0.146472
0.0178459
0.0272016
0.000674038
0.0422694
0.0268249
0.0396181
0.123474
0.0400894
0.0381105
0.0960131
0.0673652
0.044419
0.0784061
0.114623
0.111401
0.037445
0.037379
0.0445115
0.0418556
0.0824552
0.0870845
0.0597287
0.102879
0.0176726
0.000949405
0.0826114
0.0338119
0.0471586
0.122841
0.122503
0.0337409
0.0874077
0.0888391
0.0474247
0.0302769
0.0270831
0.0769473
0.071705
0.0544191
0.0578231
0.0227831
0.152602
0.0459348
0.129576
0.0905779
0.138267
0.11683
0.116594
0.0288751
0.000246177
0.137793
0.0488512
0.0463378
0.0472292
0.0202194
0.0370718
0.0376075
0.108586
0.0461351
0.0459919
0.0298873
0.056447
0.0415531
0.0429872
0.0418845
0.0538726
0.0599267
0.0756251
0.131601
0.111233
0.112157
0.112879
0.110391
0.0422386
0.0138631
0.0150383
0.0401585
0.0435254
0.0431357
0.0494842
0.0476069
0.0573383
0.0639336
0.0586703
0.0588315
0.0418821
0.0896943
0.0411416
0.0422711
0.0444024
0.0392138
0.11131
0.11284
0.112978
0.111391
0.0418852
0.040458
0.137695
0.0830965
0.0479202
0.0461601
0.0476607
0.121304
0.0424476
0.111779
0.135731
0.0467461
0.0506999
0.0490135
0.0483869
0.0723829
0.0715869
0.0655024
0.087374
0.0883187
0.0859764
0.0627612
0.057253
0.0543503
0.0554994
0.0578579
0.0635754
0.0739348
0.132657
0.121324
0.110043
0.110228
0.120627
0.133078
0.000473981
0.0406117
0.0476312
0.0457377
0.13705
0.144379
0.129494
0.100215
0.0956673
0.0486148
0.0379688
0.039969
0.0366765
0.117217
0.126871
0.122688
0.131586
0.0340974
0.0389306
0.036325
0.0364456
0.0892185
0.0854456
0.0837528
0.0913397
0.0416453
0.043074
0.0439735
0.0436393
0.0424341
0.0381389
0.0320735
0.0833916
0.0710901
0.0924935
0.0849866
0.0883401
0.0899113
0.0200763
0.137256
0.138483
0.139458
0.138713
0.0405662
0.0422615
0.0478807
0.0471372
0.0451452
0.0597886
0.0603256
0.0341443
0.038875
0.0393824
0.0140537
0.0535611
0.0569797
0.0506748
0.0719812
0.0796279
0.0740489
0.0765526
0.0503319
0.0555784
0.0533868
0.0524365
0.130052
0.0645348
0.0620958
0.066715
0.0605333
0.0450421
0.0472481
0.0391743
0.0409678
0.0407034
0.0392822
0.151348
0.15002
0.135427
0.04771
0.0458184
0.0476567
0.0451326
0.122068
0.137932
0.07568
0.0852829
0.130606
0.145322
0.139445
0.130517
0.153351
0.00587171
0.124289
0.125702
0.0758381
0.0341368
0.0359704
0.0374906
0.0332671
0.0818624
0.0907442
0.0867484
0.0863107
0.137946
0.13776
0.138015
0.139672
0.139612
0.165846
0.151211
0.157602
0.159001
0.140589
0.144576
0.142496
0.142437
0.0263462
0.0246805
0.0234293
0.0268772
0.104223
0.103078
0.106703
0.0449835
0.0421826
0.0422199
0.0446806
0.136954
0.134703
0.136209
0.000672303
0.0043844
0.138675
0.0107236
0.119882
0.139543
0.138718
0.000939883
0.00128829
0.139035
0.139055
0.139226
0.138869
0.0615629
0.138508
0.12176
0.000275547
0.000325502
0.137316
0.0355855
0.229789
0.139321
0.255904
0.126319
0.140694
0.138865
0.000658304
0.141467
0.134198
0.140304
0.13779
0.0490814
0.122402
0.137946
0.12323
0.134807
0.14458
0.129653
0.12446
0.17046
0.210875
0.240724
0.10415
0.103864
0.139054
0.139035
0.139751
0.139594
0.130152
0.005775
0.128521
0.121832
0.104467
0.139126
0.113727
0.139116
0.139096
0.139064
0.00271958
0.138413
0.138628
0.0479067
0.0532116
0.0532246
0.122636
0.243804
0.209486
0.123436
0.119525
0.123903
0.10203
0.107264
0.127671
0.12842
0.184424
0.204838
0.128514
0.252064
0.138239
0.138339
0.253177
0.207074
0.000863815
0.126596
0.261403
0.0962886
0.14182
0.142992
0.000372366
0.0763078
0.0699896
0.137489
0.139577
0.139369
0.109011
0.121091
0.131277
0.129557
0.0399904
0.0399054
0.14405
0.141478
0.14501
0.139528
0.13927
0.00101873
0.13893
0.13734
0.136089
0.13781
0.13807
0.13829
0.183993
0.13335
0.136268
0.130155
0.132754
0.160406
0.166214
0.199388
0.177086
0.121034
0.137557
0.133461
0.141479
0.134834
0.125999
0.145766
0.159887
0.150049
0.14669
0.123366
0.119508
0.0567862
0.0522196
0.0483126
0.0388723
0.139018
0.140663
0.142134
0.253611
0.194623
0.0872415
0.0935451
0.20082
0.172023
0.196863
0.145546
0.159307
0.153785
0.164528
0.234714
0.189103
0.181586
0.047142
0.0468261
0.138768
0.138572
0.139564
0.138295
0.157129
0.111443
0.114777
0.118431
0.137583
0.13819
0.137562
0.137647
0.13724
0.139676
0.162104
0.153538
0.132956
0.139646
0.142579
0.145238
0.135685
0.136274
0.212153
0.267793
0.237943
0.109295
0.113624
0.116085
0.00431164
0.00470994
0.136158
0.133535
0.0654279
0.0612379
0.165913
0.168768
0.162046
0.0319931
0.0303354
0.0579709
0.0574881
0.0379419
0.0387939
0.0438798
0.0776171
0.0733733
0.0758904
0.0293146
0.0662022
0.00608455
0.0424639
0.0180251
0.0608476
0.0347908
0.00663536
0.0541831
0.0346983
0.0078198
0.00666056
0.00710879
0.0896879
0.0900264
0.0721334
0.0628384
0.063171
0.0771597
0.050962
0.05009
0.0165912
0.0755438
0.0747724
0.0541711
0.0559501
0.0559136
0.0622355
0.0611968
0.0614498
0.0289109
0.0755973
0.075431
0.0108788
0.00281978
0.0351637
0.036973
0.0329342
0.094029
0.0947337
0.02571
0.0360045
0.0267067
0.0817534
0.0769639
0.0649668
0.0104118
0.0530843
0.0533629
0.0672103
0.0528937
0.0555573
0.0613784
0.0594701
0.051372
0.0944447
0.0639581
0.0326234
0.0656756
0.0132331
0.0158456
0.106456
0.0977469
0.0268606
0.0673982
0.0239409
0.0458532
0.0157926
0.0605374
0.062613
0.0925911
0.00156678
0.0453862
0.0711632
0.0722959
0.0464838
0.0454592
0.0747783
0.0478849
0.0482726
0.0464565
0.00154673
0.0677148
0.0366507
0.0373849
0.0221074
0.0675931
0.0674546
0.0406581
0.0423224
0.0313976
0.0319634
0.0637758
0.0540478
0.03824
0.0764157
0.0735359
0.104583
0.0446874
0.0084135
0.0648882
0.0648303
0.0353912
0.0524463
0.0547098
0.0109984
0.00164204
0.0474158
0.0348782
0.0644429
0.0641491
0.04134
0.0387469
0.0511636
0.0517565
0.0375537
0.00937986
0.0474253
0.038828
0.0383885
0.0293504
0.0577024
0.0355636
0.00144171
0.0250556
0.0888276
0.0058322
0.00586707
0.096022
0.0960561
0.11878
0.0565103
0.0723782
0.00955853
0.0786721
0.067946
0.0717212
0.0510739
0.0371258
0.0590979
0.0427109
0.040363
0.0794661
0.00675488
0.0134355
0.0518082
0.0644276
0.070444
0.0467248
0.0492528
0.0556402
0.0774486
0.0571349
0.0567304
0.050145
0.0714339
0.0670611
0.0654369
0.0563457
0.0537669
0.0402011
0.0363455
0.034931
0.0342675
0.0536837
0.0689877
0.0340013
0.0431012
0.0414875
0.0647701
0.0828784
0.047265
0.0348618
0.0615296
0.062535
0.0457972
0.136201
0.107658
0.0562947
0.0571047
0.055495
0.085133
0.0409885
0.0681386
0.0482454
0.0761587
0.0760129
0.0346158
0.0624144
0.0235303
0.0822885
0.0456192
0.0621097
0.0630158
0.0435666
0.0559629
0.0555496
0.0404831
0.135317
0.0874337
0.0176592
0.0172322
0.0515946
0.0700505
0.0690356
0.0837215
0.0786923
0.0770041
0.0327243
0.0409819
0.03853
0.0105182
0.0534925
0.0536857
0.0547211
0.0741837
0.0744165
0.0727758
0.0726535
0.0522597
0.0516088
0.029221
0.06372
0.0647868
0.0638811
0.0472786
0.070812
0.0141123
0.056303
0.0421585
0.0383819
0.0194077
0.0667593
0.0554827
0.0850854
0.0859661
0.034145
0.0373729
0.0671004
0.0548387
0.0253245
0.0868902
0.0871987
0.0402786
0.0601657
0.0377532
0.0050651
0.125965
0.124273
0.0661974
0.0726734
0.0737009
0.0820736
0.0830974
0.0678096
0.103577
0.019894
0.0234554
0.0765524
0.079498
0.0733486
0.0596979
0.0659835
0.0620201
0.0634458
0.0420468
0.0399818
0.0896092
0.0900169
0.0537954
0.0311378
0.0310056
0.0644037
0.0648733
0.0161772
0.0110704
0.00793575
0.0574046
0.0446275
0.0667868
0.067663
0.00487104
0.00418499
0.0632858
0.0630876
0.0640752
0.0459605
0.0436672
0.0478111
0.0513617
0.0670462
0.039765
0.0393085
0.0417487
0.0165487
0.0173602
0.106091
0.064562
0.0187492
0.0178971
0.0692336
0.0689346
0.05424
0.0539618
0.0546154
0.0516596
0.0512465
0.00444017
0.0472952
0.0583662
0.105889
0.0121979
0.0120962
0.0171049
0.0345737
0.0424055
0.0396233
0.0751911
0.035222
0.0944338
0.0957411
0.115736
0.110019
0.0503527
0.0344539
0.0351775
0.0389295
0.0402763
0.100668
0.100104
0.0988775
0.0435784
0.0477096
0.0416723
0.0114478
0.0170782
0.0629306
0.0240055
0.0247963
0.0523417
0.0532834
0.090934
0.0505296
0.0513372
0.0466731
0.0418558
0.0668608
0.0671361
0.0663064
0.0676804
0.0684703
0.0517087
0.0705106
0.00688561
0.0211545
0.0246437
0.0149865
0.0153159
0.0499809
0.0558795
0.0424584
0.0448891
0.0580952
0.0581119
0.0580359
0.0587921
0.0571566
0.0489412
0.0476153
0.0336008
0.0363015
0.0343149
0.0662781
0.0667616
0.0655834
0.00417644
0.0654848
0.10619
0.103603
0.0655235
0.0647231
0.0656727
0.0639368
0.0650875
0.0399238
0.0419728
0.0412791
0.0405472
0.0583931
0.0541081
0.0425314
0.0950906
0.0945813
0.0944113
0.0606505
0.0885679
0.0300214
0.0239496
0.0208722
0.0312231
0.0293075
0.0333764
0.105555
0.0545413
0.0551617
0.0745165
0.10703
0.104147
0.0605917
0.0966969
0.050352
0.0489269
0.0500621
0.0439162
0.0425785
0.0447874
0.0852938
0.0451831
0.0718044
0.0719457
0.104623
0.043362
0.0773912
0.0771586
0.0772915
0.0381866
0.000964542
0.0524307
0.0488621
0.0474079
0.0121562
0.000410357
0.102211
0.0526434
0.10792
0.0495273
0.0504353
0.078201
0.0572259
0.0795683
0.11255
0.0156439
0.0763622
0.076017
0.078727
0.0327646
0.101212
0.0998907
0.102154
0.0661902
0.0667803
0.000672473
0.0506029
0.0495263
0.100194
0.102912
0.0981816
0.000779996
0.00080085
0.0922372
0.023844
0.0203705
0.0471312
0.049195
0.048589
0.0476947
0.0878818
0.0302041
0.0292054
0.0492644
0.000610882
0.0712031
0.071466
0.0804994
0.0792663
0.0649939
0.017064
0.064643
0.0632226
0.0983846
0.0986634
0.0172846
0.0861456
0.0868214
0.0868088
0.0604517
0.0604548
0.0739969
0.0872692
0.0615887
0.0544338
0.0019895
0.0435618
0.0611941
0.00057171
0.0359774
0.0918474
0.0545276
0.00536797
0.048601
0.0471825
0.0609111
0.0618465
0.0876585
0.0836532
0.059039
0.0598816
0.0563074
0.0777128
0.0788909
0.0772572
0.0771506
0.0766228
0.000951058
0.0240121
0.000510136
0.0572139
0.00521599
0.136
0.136211
0.136317
0.135978
0.0659633
0.0556017
0.0556287
0.137801
0.138132
0.0574234
0.078792
0.077209
0.0770302
0.0450641
0.0614618
0.0678582
0.0695767
0.093577
0.0897418
0.0432224
0.0403196
0.041036
0.000539777
0.0345616
0.0355705
0.0364286
0.0338973
0.0763336
0.0763787
0.0327449
0.0936834
0.0952082
0.0771556
0.0493677
0.0498229
0.0472027
0.0445046
0.0427708
0.0458032
0.0298622
0.0290404
0.128003
0.0524281
0.0376775
0.0373736
0.0652235
0.0660286
0.0927219
0.092745
0.0934794
0.0920253
0.0729021
0.0728312
0.0623763
0.051938
0.0521564
0.051644
0.0984857
0.0962578
0.000324707
0.0444923
0.0452625
0.0166615
0.0141674
0.000445484
0.000659404
0.000631761
0.0399621
0.0393674
0.00846821
0.00885635
0.0935296
0.0764722
0.0855513
0.0527822
0.0393164
0.016424
0.015785
0.0179859
0.0511797
0.0500952
0.0514678
0.0502568
0.000450135
0.000766291
0.000798673
0.00117459
0.00937891
0.0126871
0.0348544
0.0337945
0.000857402
0.0446329
0.0259563
0.0922342
0.0920051
0.0945494
0.0912554
0.0919412
0.090965
0.105364
0.106912
0.104248
0.102527
0.072553
0.0452475
0.04755
0.0447431
0.0527789
0.0534291
0.051053
0.116368
0.105252
0.110246
0.0945484
0.0954528
0.0955253
0.074495
0.0709762
0.0709936
0.0702153
0.0680409
0.0722795
0.0555315
0.0698446
0.06917
0.0699916
0.000418426
0.000694056
0.0895569
0.0904394
0.0899661
0.0899957
0.0362252
0.0667429
0.0671183
0.0660024
0.0918348
0.0931378
0.093559
0.0912836
0.0577426
0.0581839
0.056748
0.15698
0.0396465
0.0502201
0.0506784
0.0498697
0.0511423
0.0784875
0.0844809
0.0615222
0.0622607
0.0667605
0.0656686
0.0260104
0.128408
0.0347569
0.0333005
0.105593
0.000370775
0.0439381
0.0535997
0.0670098
0.0674647
0.0665539
0.0836783
0.0846643
0.00802239
0.0454705
0.0449888
0.0468053
0.0339367
0.0355936
0.0313139
0.03827
0.0410544
0.0402583
0.00465932
0.00450746
0.0484888
0.0492233
0.0635423
0.0632622
0.0643683
0.000346857
0.057205
0.000629307
0.0648878
0.0509964
0.0493795
0.0507777
0.0490858
0.00162432
0.0477449
0.0488808
0.0483436
0.0719455
0.0547186
0.0628787
0.0616823
0.0483353
0.0480183
0.0470656
0.0492428
0.0429176
0.0398611
0.0418831
0.0405592
0.0460358
0.0439717
0.0460619
0.0483529
0.00107826
0.00433638
0.0901645
0.0905394
0.0897761
0.0908502
0.0552436
0.0558121
0.0561883
0.0357196
0.048751
0.0487571
0.0506507
0.0614715
0.0607718
0.0611591
0.0950411
0.0969975
0.095681
0.0970368
0.0983226
0.0478216
0.0461284
0.0462431
0.0476163
0.103299
0.105082
0.104407
0.103833
0.0330578
0.0315913
0.0349009
0.053429
0.0523307
0.0657443
0.0657809
0.0650832
0.0479675
0.0457164
0.0704803
0.0720207
0.120661
0.11907
0.119367
0.120438
0.0818522
0.0783928
0.0794899
0.0471846
0.0488596
0.0334753
0.0307803
0.0303724
0.0176228
0.0583876
0.0573171
0.0605956
0.0496587
0.0503101
0.0388662
0.0863852
0.0883302
0.0881294
0.0864099
0.00109658
0.0541029
0.0553227
0.0544336
0.0549586
0.137042
0.1372
0.0553202
0.0536372
0.0543136
0.0546338
0.052562
0.0527882
0.0513024
0.0265811
0.0291999
0.025898
0.0474329
0.0487583
0.0474501
0.0488161
0.0550729
0.0686926
0.0588897
0.0442896
0.0436014
0.0445471
0.0432433
0.0076615
0.0688215
0.00745573
0.00734738
0.092815
0.0920956
0.0921592
0.0927076
0.0637331
0.0495477
0.0490162
0.0654814
0.0651343
0.065476
0.101387
0.0856571
0.0525392
0.0532396
0.0517851
0.0429252
0.0389216
0.0404711
0.0411562
0.0370843
0.0769293
0.0763247
0.0109182
0.0133685
0.0525093
0.0514821
0.0516848
0.00118402
0.0522985
0.0675588
0.07439
0.0738603
0.0758018
0.0622521
0.0389763
0.0373931
0.039653
0.111037
0.108416
0.10981
0.0456757
0.0454655
0.128526
0.129577
0.0390601
0.0402251
0.041238
0.099136
0.095416
0.0893957
0.0125968
0.0152966
0.0140166
0.011371
0.0111759
0.011884
0.00983417
0.0152546
0.0515491
0.0589598
0.059998
0.0558992
0.0555359
0.0568769
0.0640775
0.0634185
0.0553297
0.0551719
0.0924397
0.0929426
0.0424295
0.0441321
0.104408
0.118931
0.0967163
0.097546
0.0837073
0.0860637
0.0822558
0.0858889
0.0877819
0.0868156
0.0231505
0.0277292
0.0602369
0.0589412
0.0594308
0.0597768
0.0739895
0.0431261
0.0438275
0.0445153
0.044894
0.0442612
0.0461832
0.0428583
0.000849891
0.0466174
0.0470302
0.0479611
0.0739783
0.0697719
0.0389552
0.0380338
0.0655485
0.0648308
0.0657894
0.0761787
0.0823904
0.0551197
0.0547761
0.0551933
0.0548533
0.0334868
0.0925625
0.0915353
0.0414767
0.0408727
0.0419207
0.0403646
0.0619814
0.0626134
0.061362
0.00622686
0.00678824
0.00539074
0.082984
0.0845592
0.0805094
0.0408386
0.0396824
0.0463304
0.0445431
0.0515496
0.0522129
0.0523732
0.0629742
0.0466916
0.0482857
0.0485459
0.0798513
0.042389
0.0407476
0.0413632
0.0418092
0.111264
0.109385
0.109524
0.111032
0.072376
0.0462957
0.047788
0.0462109
0.0482941
0.0645597
0.0926914
0.0923296
0.09338
0.0917384
0.0910527
0.0920231
0.092484
0.0907284
0.0347201
0.0492229
0.0487457
0.0555672
0.0557332
0.000602015
0.00644218
0.0709119
0.0704008
0.0586159
0.0593881
0.0595811
0.0589348
0.0603236
0.0536682
0.0527129
0.00680764
0.00820082
0.0558869
0.0544233
0.0554373
0.0549723
0.0743752
0.0888314
0.0878762
0.0884548
0.00826604
0.0542099
0.0533118
0.0545275
0.0529114
0.0410179
0.0422227
0.0411204
0.0420043
0.0847103
0.0843629
0.0837105
0.0769931
0.02293
0.0221239
0.0216629
0.0232343
0.0283829
0.0295407
0.0550728
0.0655781
0.0656296
0.065702
0.0448091
0.0466485
0.0459602
0.0454766
0.076312
0.0766913
0.0553635
0.0563489
0.0562829
0.0553547
0.0395484
0.0447658
0.0446629
0.0414361
0.0246228
0.0219692
0.0421828
0.0434071
0.0725976
0.0720522
0.0727189
0.0987842
0.0981406
0.0977794
0.0330093
0.0316975
0.0324623
0.0572029
0.0576528
0.0581344
0.0567041
0.0348866
0.0434593
0.042946
0.0441984
0.0421448
0.00434387
0.0372305
0.0369431
0.0407262
0.0574811
0.0583655
0.0583863
0.0573812
0.128169
0.0898704
0.0891402
0.0891695
0.0897777
0.0589392
0.0598995
0.0588155
0.0358817
0.0917884
0.0911573
0.0918058
0.0565072
0.0580595
0.0309301
0.0345408
0.0328716
0.0518432
0.0508259
0.0521286
0.0691533
0.0368851
0.0751874
0.0507792
0.0466794
0.0887222
0.0880391
0.0913765
0.0100526
0.00844761
0.011196
0.0607465
0.0512319
0.0523553
0.0502979
0.0309654
0.0301807
0.087744
0.0853621
0.0860219
0.0872015
0.0914913
0.0909603
0.0438912
0.0458455
0.09098
0.0892664
0.0910323
0.0889801
0.123967
0.124383
0.0401182
0.0897323
0.0895521
0.0894484
0.0734956
0.0744612
0.0732316
0.0166109
0.0351357
0.0344113
0.0367835
0.0330705
0.0433185
0.0453965
0.0444357
0.0443
0.0474629
0.0456898
0.0466085
0.11058
0.0945181
0.109925
0.0989681
0.0244018
0.0804405
0.0795063
0.114118
0.115728
0.0464761
0.0455692
0.0453032
0.0466216
0.0910511
0.0903395
0.120509
0.118698
0.0383324
0.0595049
0.0603083
0.060645
0.0251772
0.0224269
0.0244758
0.0223972
0.0287457
0.0315576
0.0498266
0.0507339
0.0498043
0.0315333
0.0268565
0.0296232
0.0291414
0.0577603
0.0567412
0.108851
0.0990554
0.0423836
0.0449899
0.0443049
0.042552
0.0616029
0.0182324
0.0195032
0.0209464
0.0173323
0.107808
0.106051
0.108734
0.0337359
0.0352868
0.0353753
0.0359012
0.0348361
0.0363814
0.0745626
0.0775979
0.0243588
0.0253998
0.0956448
0.0651501
0.090257
0.0890624
0.082864
0.00383818
0.0685766
0.0678659
0.0683326
0.0461265
0.0157611
0.0364793
0.082673
0.0733936
0.0693731
0.0904632
0.0790857
0.0799337
0.0790304
0.0533282
0.05484
0.000284836
0.0547584
0.0398903
0.114994
0.113059
0.113665
0.114426
0.0598446
0.0609408
0.0606734
0.0600841
0.102837
0.103818
0.102137
0.104391
0.0378384
0.0384599
0.0389665
0.0372562
0.0642895
0.0637891
0.0644203
0.0635916
0.0441416
0.0448701
0.042645
0.0302341
0.0353688
0.044556
0.0528249
0.0513175
0.123587
0.122402
0.0555357
0.0267221
0.0944338
0.0949749
0.0953781
0.0316917
0.0674917
0.0662792
0.0649166
0.0686468
0.0659702
0.0630698
0.0620882
0.0624025
0.0627616
0.0481856
0.044794
0.0470285
0.0457
0.0884281
0.0880265
0.0886896
0.0877304
0.0762508
0.0746637
0.0751026
0.0757965
0.0669667
0.0669986
0.067323
0.0666059
0.0326391
0.0305534
0.0320961
0.0309712
0.0422953
0.0411136
0.0494827
0.0477437
0.0472833
0.0492787
0.11451
0.117275
0.115727
0.0728535
0.0509466
0.0493098
0.0499254
0.0466235
0.0431711
0.0459266
0.0426435
0.0435688
0.0411962
0.0421791
0.025053
0.0638193
0.0633044
0.000271606
0.0476706
0.0491819
0.0479882
0.0488022
0.0671577
0.0529528
0.0622681
0.0404443
0.00419375
0.00438127
0.00421283
0.0481554
0.048921
0.127946
0.044502
0.0438461
0.0554875
0.0544492
0.0554119
0.0489311
0.0493529
0.0490998
0.0497055
0.0541404
0.0550473
0.0544651
0.0590552
0.0608933
0.0421024
0.0439984
0.0428664
0.000242781
0.0484042
0.0488222
0.109992
0.108488
0.0681081
0.0694126
0.0666144
0.0707301
0.0307849
0.0338769
0.0346922
0.0370369
0.118774
0.117622
0.0472461
0.0470142
0.0479158
0.0463725
0.0462427
0.0460244
0.0441696
0.110658
0.108099
0.10924
0.109447
0.085666
0.0848262
0.0859888
0.0843576
0.0829257
0.0842968
0.0841706
0.0829514
0.0758086
0.0761987
0.0749089
0.0330987
0.0337883
0.0340424
0.0327268
0.0351485
0.0369446
0.111417
0.0190485
0.0218914
0.0211999
0.00111292
0.0431615
0.0421886
0.0424687
0.0747907
0.073084
0.0810707
0.0819491
0.0807297
0.0821933
0.0244385
0.0218878
0.0866176
0.0863522
0.0858216
0.0871166
0.116638
0.117611
0.11807
0.116108
0.044558
0.0453782
0.043966
0.0460701
0.0558974
0.056025
0.0557572
0.0419079
0.0429332
0.0432008
0.041516
0.0755045
0.075969
0.0753111
0.0539541
0.0883622
0.0875957
0.0884769
0.0875501
0.0244603
0.0293586
0.0142131
0.0112878
0.0585986
0.00461137
0.00328857
0.00301683
0.0291905
0.0358197
0.0115914
0.000639407
0.000868831
0.000606003
0.000303706
0.0286404
0.000388991
0.000449356
0.010395
0.0102523
0.0398287
0.0113511
0.0103842
0.138817
0.0169395
0.128888
0.0144371
0.0304613
0.0304554
0.00755338
0.000533095
0.0814385
0.0139815
0.00602028
0.00636523
0.00986123
0.10663
0.137051
0.016048
0.0171139
0.029917
0.00283802
0.0892375
0.13726
0.0606548
0.122622
0.119185
0.049744
0.00335605
0.0150792
0.000400953
0.000591891
0.000565684
0.024911
0.0233895
0.00681332
0.025282
0.00279302
0.00327854
0.0231639
0.000636486
0.0566864
0.0305011
0.138667
0.138546
0.00046822
0.0228785
0.0218776
0.0129467
0.00813894
0.0220246
0.0216109
0.0224318
0.0480977
0.0498829
0.00676782
0.0511929
0.137525
0.13718
0.0213548
0.00057158
0.00519457
0.00415412
0.0482664
0.0121209
0.0185752
0.000496246
0.0195466
0.0237943
0.13016
0.00314707
0.0153997
0.0133333
0.138391
0.114253
0.00430265
0.0803132
0.0379804
0.00776657
0.135177
0.0245186
0.00232386
0.0353115
0.0342149
0.00894274
0.0204148
0.0212426
0.0230632
0.0186812
0.0264939
0.0252193
0.026115
0.0366322
0.00175511
0.0198294
0.0350036
0.136152
0.0174391
0.118976
0.0152947
0.130589
0.000636528
0.0221857
0.0211135
0.0221307
0.0628527
0.0270253
0.0278933
0.00594284
0.000376559
0.00143466
0.0027199
0.074967
0.0708225
0.0178463
0.0286285
0.00541832
0.00675681
0.00261914
0.0296566
0.0313178
0.151594
0.00219827
0.13722
0.137639
0.0539248
0.0155212
0.0352114
0.057753
0.0569112
0.0346482
0.0331997
0.0350668
0.0284269
0.00827848
0.00410163
0.0372445
0.0157564
0.0219799
0.0316229
0.0321966
0.0300237
0.00521046
0.00828805
0.0486624
0.0480201
0.0305641
0.0281405
0.0282433
0.0353219
0.0364773
0.052324
0.00387666
0.00396633
0.0468497
0.138573
0.00395308
0.00520229
0.00465777
0.00314396
0.00423432
0.00429583
0.00563693
0.0180088
0.00384969
0.00442078
0.00587635
0.00427465
0.00578961
0.03059
0.0299025
0.0308403
0.00451586
0.00625836
0.0357191
0.000568755
0.000894486
0.0308563
0.00299314
0.0196406
0.0176583
0.0243483
0.0232952
0.00774576
0.00865042
0.00555548
0.00722288
0.123336
0.00504793
0.0784654
0.0775556
0.0773358
0.0383946
0.0246223
0.00629741
0.020383
0.00591136
0.13124
0.0254433
0.00254442
0.0118897
0.0111443
0.013608
0.0100762
0.00684915
0.140006
0.0224545
0.024256
0.0041399
0.00330116
0.0586566
0.0686398
0.155153
0.149562
0.00743777
0.0183165
0.138783
0.0222854
0.0223584
0.000583695
0.0078486
0.0143359
0.117652
0.120181
0.00894018
0.0508433
0.00955959
0.00829733
0.00943907
0.00438978
0.047927
0.0497561
0.0514116
0.00122479
0.0352578
0.132418
0.130192
0.114968
0.0560657
0.0191609
0.0379929
0.0323584
0.0669457
0.139189
0.139066
0.0226924
0.137505
0.001735
0.00217986
0.00916457
0.0252768
0.0117669
0.0410188
0.0410948
0.0396013
0.0396765
0.00446901
0.00278881
0.00198061
0.159
0.0518247
0.0116931
0.120969
0.129666
0.130209
0.0359993
0.072054
0.0700157
0.166412
0.14832
0.00142583
0.00826878
0.0588599
0.0578484
0.00666543
0.00609884
0.0308071
0.0300672
0.0816452
0.0797364
0.0526968
0.0548339
0.0419053
0.0144957
0.0134238
0.0587397
0.0366575
0.0363572
0.0302739
0.0287957
0.0356483
0.0167714
0.00478035
0.0251002
0.00486208
0.139855
0.010672
0.0119197
0.0241837
0.0382806
0.0236058
0.0240204
0.101115
0.0941628
0.109475
0.0242975
0.055511
0.0148766
0.13815
0.0336136
0.00175396
0.0374048
0.00370651
0.00382261
0.137748
0.0305502
0.0304265
0.0155163
0.137729
0.0933756
0.100399
0.0221347
0.0381569
0.0387298
0.078513
0.0793532
0.0362364
0.0333158
0.036208
0.0340942
0.0357454
0.0751114
0.0660395
0.13608
0.136602
0.0601566
0.0600258
0.0677633
0.00721789
0.00618965
0.0709506
0.0165969
0.136805
0.0638686
0.0659382
0.0678139
0.0427183
0.0407812
0.0423031
0.113834
0.147126
0.139355
0.0694185
0.0681547
0.0687948
0.12247
0.00594217
0.0268246
0.0216912
0.015418
0.0150904
0.0988406
0.0248424
0.0337946
0.0374208
0.0203045
0.170508
0.013103
0.0387746
0.0143234
0.0186103
0.0104608
0.0141121
0.0144996
0.121714
0.124153
0.123094
0.027661
0.0281184
0.0116921
0.0685199
0.0153517
0.0145561
0.0329819
0.0295635
0.0291009
0.0377172
0.0719693
0.0317937
0.0338826
0.133032
0.127026
0.00187798
0.00244844
0.138695
0.0164492
0.00823308
0.0125024
0.119038
0.117537
0.138559
0.110013
0.138666
0.132963
0.1322
0.0202591
0.02368
0.126083
0.126977
0.124871
0.125486
0.0444812
0.0419947
0.0961833
0.0983818
0.125751
0.123541
0.00321115
0.118864
0.117764
0.03416
0.138914
0.138745
0.13869
0.0913162
0.0873519
0.137674
0.139693
0.138333
0.057232
0.025068
0.0266637
0.0266054
0.0479573
0.0475204
0.0482161
0.154268
0.155169
0.0570779
0.0261051
0.0274497
0.158074
0.155957
0.0502636
0.0507456
0.0287193
0.0314825
0.000420361
0.00267585
0.0522119
0.00867243
0.010332
0.0109649
0.0763189
0.000874399
0.0013261
0.0549097
0.0555131
0.0178361
0.00806203
0.00776336
0.00897897
0.00559161
0.0234913
0.0240471
0.0262199
0.113254
0.114972
0.0187261
0.0141794
0.0152026
0.00620567
0.00704846
0.129516
0.127709
0.134398
0.142861
0.15038
0.109449
0.0432537
0.0425026
0.0359517
0.0404798
0.0389653
0.0562279
0.065241
0.0439246
0.0428032
0.0196218
0.0208824
0.138682
0.138608
0.242682
0.227109
0.0297628
0.00804616
0.0321518
0.0106441
0.0117723
0.0103478
0.0102243
0.00718993
0.119674
0.0183825
0.0224923
0.0328866
0.0302027
0.0604038
0.0616815
0.0381499
0.0372915
0.0345854
0.0322141
0.0168209
0.0105088
0.0278324
0.00862226
0.0338936
0.136651
0.0129468
0.0137717
0.144594
0.150126
0.027177
0.0213726
0.0190709
0.00949119
0.0388543
0.0400707
0.0506271
0.0400836
0.0395458
0.0593747
0.0242129
0.000591248
0.0411129
0.0416554
0.0166629
0.0130747
0.0155814
0.0824764
0.0832606
0.0823506
0.0492528
0.0693266
0.0677666
0.0701022
0.0685422
0.133674
0.0975936
0.0983238
0.0312041
0.0332199
0.0329266
0.0530187
0.0755029
0.011263
0.139918
0.139677
0.139885
0.135163
0.0447268
0.0208328
0.0224107
0.0290971
0.0258294
0.0579578
0.0346417
0.0368645
0.0517293
0.0560944
0.03781
0.0282712
0.0986564
0.104296
0.108741
0.0293102
0.0291286
0.0428283
0.0431323
0.0234236
0.0731755
0.0715441
0.0555354
0.128281
0.0378644
0.00536055
0.00602446
0.135325
0.0238858
0.0660975
0.00356081
0.0213262
0.0197959
0.0215338
0.0197399
0.0260612
0.0456848
0.0101997
0.00860904
0.00788261
0.0952991
0.0328643
0.000971799
0.00156983
0.0657329
0.138271
0.0650434
0.0654184
0.0400379
0.111795
0.106802
0.019625
0.0203949
0.0449491
0.0425715
0.0442723
0.0622236
0.0210015
0.0220336
0.140027
0.140515
0.0358659
0.0220357
0.0201831
0.0347567
0.138788
0.0918635
0.0899578
0.0368013
0.0723238
0.0327714
0.0030176
0.00242314
0.00507907
0.0453601
0.0843353
0.00348454
0.183262
0.00243412
0.00456145
0.00693458
0.00431107
0.00362799
0.00380552
0.00268442
0.00364242
0.12901
0.036514
0.0380274
0.0206285
0.0355367
0.0642517
0.0629532
0.139373
0.139501
0.139296
0.0714389
0.0951341
0.093679
0.0680038
0.0659535
0.0635821
0.0308874
0.0309195
0.0667963
0.0649261
0.0127145
0.0140353
0.0156139
0.145594
0.150646
0.138179
0.13798
0.0483223
0.120022
0.116244
0.031104
0.0333141
0.137588
0.137265
0.00402281
0.0617056
0.0609787
0.139085
0.138809
0.00911296
0.133925
0.0659606
0.0725794
0.0558248
0.0254219
0.0206365
0.00393883
0.0233166
0.0938566
0.07066
0.0712314
0.0150911
0.0181234
0.0192798
0.00260893
0.0688945
0.0695519
0.0608212
0.124654
0.125164
0.126133
0.0385864
0.0424895
0.0442617
0.0449485
0.0442501
0.0374205
0.105736
0.107402
0.0451426
0.0392098
0.0400485
0.0389609
0.0423657
0.0431998
0.00134219
0.112705
0.113786
0.115807
0.014243
0.0130877
0.0498934
0.0497388
0.136711
0.136675
0.0250737
0.027652
0.126575
0.127419
0.0385954
0.0390282
0.038145
0.231503
0.187753
0.0800509
0.0783206
0.0120949
0.0135533
0.121246
0.0463524
0.0479963
0.131409
0.130616
0.1298
0.0220629
0.0241423
0.138468
0.138181
0.0434346
0.0423898
0.0432768
0.03066
0.0282279
0.108073
0.107693
0.106604
0.0110752
0.0141505
0.0524821
0.0530659
0.0149617
0.138074
0.138252
0.0414896
0.126897
0.123015
0.0167661
0.0624784
0.0657431
0.0350492
0.0354563
0.0366392
0.138265
0.118357
0.103334
0.109799
0.115178
0.0209832
0.0740346
0.138205
0.0204725
0.00189512
0.00337908
0.0466583
0.0463363
0.0150023
0.0704637
0.0362515
0.0335468
0.120536
0.132037
0.0429504
0.0448864
0.0195038
0.0633933
0.0675533
0.0135259
0.0415908
0.0408758
0.0647383
0.00475741
0.00480139
0.121652
0.0466561
0.047092
0.0456827
0.0354251
0.0408033
0.0367168
0.0494649
0.0506393
0.00674822
0.0514601
0.050849
0.041455
0.0396861
0.0396311
0.0081736
0.00721614
0.0907708
0.0897869
0.0887479
0.0364395
0.0332949
0.0528561
0.0467425
0.04859
0.00350391
0.0341788