/*--------------------------------*- C++ -*----------------------------------*\
  =========                 |
  \\      /  F ield         | OpenFOAM: The Open Source CFD Toolbox
   \\    /   O peration     | Website:  https://openfoam.org
    \\  /    A nd           | Version:  6
     \\/     M anipulation  |
\*---------------------------------------------------------------------------*/
FoamFile
{
    version     2.0;
    format      ascii;
    class       volScalarField;
    location    "1500";
    object      p;
}
// * * * * * * * * * * * * * * * * * * * * * * * * * * * * * * * * * * * * * //

dimensions      [0 2 -2 0 0 0 0];

internalField   nonuniform List<scalar> 
29884
(
2.79291
0.0968041
0.527339
-2.65482
-0.154083
2.47095
0.112721
-4.39721
-0.836182
1.06633
2.80892
0.652534
-1.26681
-2.36957
0.0344164
-1.92278
-0.323713
-2.19713
-4.43224
-2.95788
-3.46104
0.547209
0.28204
3.38725
-1.57116
1.14094
-0.749443
-1.34217
0.3309
0.40367
3.11213
2.6856
-0.76956
5.29506
1.83229
1.6979
0.844977
2.98945
1.77745
1.01559
0.741259
-1.70394
3.05407
5.05836
-3.62687
0.517637
-2.25972
2.12978
0.604629
2.44577
3.10132
-0.299666
1.21791
-0.846895
-2.91132
4.33298
-2.69406
-1.67081
-3.71026
-0.635518
-0.313196
-0.797008
-0.308051
1.0191
2.07677
-1.95399
1.3313
1.57107
0.728827
1.44584
-0.424407
-1.1582
7.87705
0.697843
0.52229
1.48142
-2.77997
-1.32579
-2.6027
0.828398
2.1272
-3.28084
-0.33419
2.06182
-0.240473
15.2036
0.673412
-0.618825
0.169772
19.0171
0.547835
-2.3235
15.028
20.3883
2.70016
24.4555
1.17956
1.29344
0.0434591
20.3072
1.55461
1.71322
0.160798
0.553863
0.365451
-1.86542
18.3553
18.867
3.09843
1.63705
1.27722
24.468
-0.0687132
-0.202798
-0.198662
1.90625
2.40247
0.00962186
3.84237
3.36707
0.819734
2.52417
2.08491
2.69904
-0.356952
3.5104
1.187
1.46645
-0.724201
2.97923
3.19913
2.86169
-4.31759
-2.30332
-0.202387
-0.653978
2.20529
0.364158
0.345339
0.626097
0.355461
3.09531
1.93009
-1.94036
-2.10373
-1.87835
-1.54763
2.45857
1.95396
2.1356
2.66478
16.5628
17.962
0.725741
0.623559
1.01067
0.570988
1.17031
0.846586
0.624042
0.947108
3.43604
3.62347
2.73781
25.6021
25.5155
-2.48282
-1.07255
1.02741
-5.91763
-2.84155
1.19879
1.2186
-0.377128
-0.22242
2.73868
3.04805
-2.90493
1.91987
1.76228
1.90881
5.3391
5.3943
4.74117
-0.155978
-0.101354
1.22215
1.08373
1.32006
3.20439
0.570245
4.27684
4.85661
-0.334317
-0.418573
2.55682
2.60358
0.68288
-0.088992
0.0975115
0.299239
2.55294
2.44692
1.64159
2.50768
3.93958
0.113322
-0.275107
-0.392533
-0.767123
0.571648
-0.589182
-1.78328
-3.57755
-1.63285
17.5896
2.55964
19.4304
-0.172482
21.6937
21.9867
-11.1886
2.3085
0.134558
16.6428
22.0863
18.95
21.5466
12.0074
-7.2401
4.6937
19.3592
17.9004
-7.30252
-7.63191
18.0543
18.2049
2.7446
-3.63513
-3.43652
-4.06851
24.1855
18.1283
-6.52537
-4.30404
2.9393
18.284
19.522
-8.7074
-9.80218
-5.70763
0.620918
2.61066
2.45566
22.5744
22.2595
21.2096
21.5943
-10.6244
-9.72847
-0.654783
2.97879
-6.59095
22.7284
2.24134
19.6827
-9.49615
2.23875
1.83548
19.7858
1.15869
1.30049
21.0418
19.2908
19.3966
17.6332
18.3735
21.2601
20.9734
-5.07613
-0.818765
18.0976
1.65488
1.45119
3.76555
2.86545
2.51641
-9.3058
25.7335
1.81951
22.1916
18.0662
18.0459
-5.8331
-9.62987
-9.67094
3.09669
18.0448
18.1218
-6.09155
-5.22657
18.7235
18.5761
18.7358
21.2376
17.4524
16.4328
6.55256
2.63199
2.87376
2.86837
3.15245
20.8095
-5.4541
-5.85935
-9.58243
-6.40733
18.5672
-10.662
-9.76455
-10.2955
20.2543
20.8136
21.0291
-10.3489
1.346
20.0564
20.6379
20.6999
21.0782
2.15104
1.73652
1.71192
1.75132
18.1731
18.1129
2.20187
-3.86065
22.0972
22.0354
-7.43399
-3.22959
21.8985
8.06604
0.39175
22.3092
21.8813
22.0442
22.0749
19.5828
19.2646
20.196
1.20178
1.30105
0.895856
20.6602
21.2376
21.3689
21.3621
21.2849
20.0932
19.1206
6.15061
0.411263
2.36976
2.22709
2.76421
2.64857
25.0145
22.8889
-6.66288
-5.82796
0.556911
0.682753
0.5261
2.96311
2.3397
-7.89447
-9.84551
-10.2779
-10.2988
11.7296
4.06914
4.03643
3.59643
-5.79372
-6.48766
-6.29681
-5.55553
16.4315
17.5988
18.637
17.1027
-6.89875
-7.41718
-6.91569
18.1864
18.5097
-4.21139
-4.17486
17.7741
18.9244
16.2892
17.5957
16.7
16.4072
19.2566
2.99902
3.21638
1.99675
2.27635
17.9245
17.7116
22.1441
22.3168
22.5217
19.6627
-0.101393
17.8026
17.3483
18.2942
-3.55333
20.7086
20.5625
21.443
19.7163
19.1565
18.9018
18.4571
20.7553
20.3444
20.4868
19.9184
-3.9975
18.2842
19.2395
19.2008
19.4825
-4.56995
-5.03515
19.2749
18.9533
18.4706
18.7178
3.85619
3.48017
4.03034
-7.17712
-6.08192
-7.59366
-6.94938
-0.357472
-1.55787
14.4009
14.2325
1.15202
1.20179
1.1854
0.957657
-1.24894
25.2234
6.66429
5.94251
0.360491
-6.91231
-6.5194
-7.00998
-6.44224
16.3165
15.3811
15.7063
14.5844
1.54184
1.40726
1.55016
0.897339
0.940739
1.14223
0.722225
0.93592
0.86294
3.61772
3.40723
3.4853
3.89324
-6.05789
-5.49129
-6.09367
-6.28837
2.93567
2.61
2.7967
22.0883
22.3027
22.1444
21.5994
4.15596
4.9355
4.38754
24.2823
25.2604
1.35123
24.904
10.8399
0.813649
0.785486
24.3769
24.2292
0.825361
0.85308
0.857437
1.31073
-8.35374
0.880691
-0.480527
24.5602
24.5932
2.31641
19.5115
-0.0380378
0.962932
-4.17246
-5.87936
-1.85581
-2.0696
23.2963
-3.59825
-4.07844
-0.304119
1.95792
-5.60424
-0.0248429
0.169237
0.180499
0.314605
-1.83183
3.13274
3.19315
-2.76
-2.65541
-2.8324
-0.125675
-0.381
1.1882
1.23263
1.04355
0.989528
4.67307
22.9799
2.27424
2.24899
0.0253584
1.10792
-0.428678
0.913978
0.987551
1.02284
25.1719
1.38434
1.32436
-8.4566
-9.34952
-8.3222
-2.36575
-6.46015
-4.93791
-0.403621
-0.354955
-0.376978
14.6514
13.8396
-3.02325
-2.65223
-2.38978
-1.71108
7.27477
-4.67295
-1.03959
-0.870346
-2.42668
-2.72585
25.0434
0.277088
-1.15898
14.4787
-0.193521
0.12991
25.688
18.7624
19.3957
2.1619
1.06654
1.13693
-7.31017
2.34688
6.35552
7.12467
22.3275
22.143
3.9636
4.47746
4.2799
0.99855
0.944472
23.3166
1.24504
3.51323
3.73019
1.84656
1.6521
1.50943
2.37485
5.66963
5.04761
6.22875
5.58017
2.78958
0.444582
1.60732
-0.823226
1.51468
0.238401
0.809942
0.934576
-5.53514
-6.64499
-1.55946
-0.168478
-0.548208
-1.04798
9.34873
10.5885
19.4887
19.9011
20.2994
21.4976
0.797856
3.02309
2.81543
0.657544
1.29946
17.4348
16.7405
-3.7168
-3.9806
-3.25239
1.99226
0.898881
3.13921
3.49273
6.89664
3.73889
4.37759
-10.0045
-10.4387
1.09286
1.26192
1.0679
1.29614
-2.60292
12.8024
12.0593
11.2395
1.59272
1.69315
1.80548
1.76902
1.90866
0.944676
2.89308
3.06949
-3.44267
-3.29414
-2.91958
-2.06691
-2.30832
-2.59107
-1.34022
0.564107
-1.94513
12.9722
12.0525
10.9042
23.2083
23.101
4.9446
5.39518
19.8276
20.0641
-0.672884
-1.16568
-0.40761
19.3444
19.6522
8.11642
7.48965
22.8604
16.4565
-8.29481
7.18331
3.41898
5.40952
23.2804
4.44575
-24.7714
-8.63542
-19.1239
-1.77626
22.7935
-5.92521
-12.2496
19.9545
-23.2856
-5.58181
-5.72395
4.39744
4.53039
3.70897
-0.803138
-1.37139
6.9704
-4.53321
-4.93201
-8.71904
5.30879
4.74968
-4.89749
-4.13328
-3.75959
-1.3436
0.18326
-0.0646753
18.9789
3.71635
4.43685
-3.26933
24.4021
17.2193
16.8962
23.4475
-16.617
4.08492
-15.4468
-11.5391
23.7435
0.529816
-0.700634
2.96039
21.1368
-11.9662
-11.7409
4.62291
-3.45946
-2.47374
-3.58548
-2.11371
-4.34838
2.77355
13.4663
-12.4856
3.94308
18.5925
18.7552
1.84226
1.74396
-10.2316
-2.35799
20.3587
-7.76845
-8.94771
-1.43894
-0.381078
3.61625
-34.8155
-3.54614
-1.22078
2.58669
17.2765
17.3462
6.0022
-6.5551
-6.78749
-7.54402
-35.0635
0.264202
-10.8184
-10.5291
22.5643
0.966629
0.460281
22.8604
22.6794
-13.0772
-13.1335
0.324482
-12.0638
19.253
-0.638678
-1.21863
2.11557
-7.49634
14.5583
-0.314477
-0.563814
-10.0144
-4.01743
-2.84485
-7.95885
25.2894
15.946
-11.8849
6.07116
5.70289
16.6803
16.856
-4.52692
-4.20051
-14.0015
-25.4513
-6.08963
-10.3004
-10.3971
19.5949
-3.44808
-13.2519
23.3713
-18.5616
1.8371
-5.60336
-5.79432
3.05111
2.97599
-0.192811
16.1225
4.0443
-25.5865
-12.8998
-13.0835
2.76924
-10.5639
-2.152
-0.685704
-14.1894
-14.4329
6.34738
16.9902
21.9658
-3.52047
2.1994
2.0207
16.3509
16.2723
-2.23141
7.58269
-1.62358
-1.51286
-6.38712
3.43192
0.559204
0.128828
8.07857
9.2286
19.0446
22.5557
22.7714
22.7401
-3.40055
-2.09262
-10.1842
17.9023
18.0959
13.3226
0.759494
15.5643
23.115
14.9839
14.5023
-7.65959
2.11679
-1.18887
16.0357
15.9914
-4.7759
1.02211
-11.8065
4.42467
-12.2943
5.03026
4.87381
19.9439
1.30633
-16.675
0.752081
-11.4625
-0.908461
-0.0109613
16.0639
15.6925
15.5288
4.70852
4.25064
2.02987
-9.03964
-9.12286
16.6658
1.9024
1.52116
1.30527
-0.116936
-0.470878
3.18903
-9.50378
-10.3614
-24.9468
-3.67224
-3.11306
-2.94895
7.87226
7.66132
5.62882
5.95714
-3.92541
-4.34143
-14.1942
3.58588
-2.47023
-2.76213
-11.9593
6.88216
-22.6408
15.8162
-11.6162
-11.3513
-20.5306
4.18811
-12.4205
1.51996
1.829
-12.5635
-10.8345
0.214845
16.5247
-17.2165
4.42572
4.823
-12.012
15.0279
-10.9172
24.6221
2.69599
3.15275
4.02386
2.21189
2.78301
0.341479
0.55315
1.62321
3.32033
-17.7837
-16.5642
6.02879
2.24872
1.45903
-0.192066
-1.66003
-1.99797
1.8053
-8.4364
-9.53755
4.78632
4.48361
-4.50705
-13.2406
-13.5218
2.66176
2.94668
24.3672
-6.81331
-6.39136
-2.01697
21.9808
-2.43651
-2.12759
-5.79721
-5.56939
1.42351
1.68357
2.52239
17.5643
18.0599
-11.317
-5.16172
1.68606
-11.3008
-11.1195
-11.4275
19.0001
18.7342
-11.8947
2.37254
-19.1548
-19.5183
6.15769
5.6758
-12.2033
-12.0188
-12.2426
16.0192
16.2439
-5.65678
-12.0644
-3.47829
4.86747
-7.76073
-7.91769
18.6378
-11.9589
-8.23868
-9.99013
4.84435
23.2806
0.208193
-0.392716
2.90289
2.33187
-16.0248
-12.1325
-11.5764
-10.0706
-9.24954
2.32549
2.29956
2.18576
-13.2161
-12.431
18.4253
-4.61817
-4.33565
1.742
-8.36393
-8.10737
-4.21434
-3.65802
2.01224
16.0669
16.0067
-12.916
-12.3951
4.01852
4.33479
3.87788
4.78056
5.48669
16.1402
6.47924
23.0447
-8.90901
-9.31361
-8.70804
-8.63293
-7.68301
-8.77972
-11.9755
-12.0738
-1.11083
-1.13923
-1.32749
-0.572071
-1.97629
-6.11776
-6.50298
22.9493
18.7162
-12.118
0.499851
0.452485
0.0490398
12.7065
-0.276184
1.9818
2.25206
0.576651
0.728562
1.02853
2.1496
2.92335
16.8167
16.4537
16.5825
16.9276
-2.78909
-3.3619
18.4822
2.92871
2.89169
3.12626
-0.115917
2.25605
17.9796
-4.92205
-4.37841
17.6209
18.0217
17.2518
0.646777
-2.66688
-2.44443
-0.528191
1.51877
1.90231
-0.889098
3.09866
16.5102
16.5732
16.3538
-7.84886
-8.44777
-7.59634
0.76921
16.4878
4.44982
3.77908
-0.670814
22.4566
7.44831
7.29325
7.44985
-10.2616
19.0084
-12.4001
17.1785
17.3674
24.1389
25.6335
2.32412
-4.60386
2.51719
-5.14796
-4.77048
-0.185885
15.5442
0.193899
4.42806
-20.2677
-0.196832
0.147328
0.358101
17.5581
2.28748
2.28748
2.35605
3.97467
4.75054
23.7772
17.2855
17.4731
-0.696788
-0.453823
-0.100654
21.4892
22.3753
3.01616
17.9436
18.1333
18.0299
17.4557
17.2082
17.4225
1.83702
18.3283
18.4297
-12.3801
24.1229
3.59935
3.93318
-0.100201
-0.0529532
5.06108
0.154481
-0.187514
-0.676213
2.1793
2.09462
-9.50483
1.11466
1.39676
1.46377
-0.0509785
0.312529
8.03197
2.19145
6.55922
-2.67464
21.064
22.6849
-1.3551
24.3463
-11.4742
3.85629
16.2196
-5.62876
17.5494
17.8354
14.7546
14.7062
1.39534
0.686142
-2.23696
-2.10529
-2.30804
-0.613352
-0.224964
-0.475851
6.5498
6.33932
21.2003
21.801
24.594
-1.50679
-6.44525
2.81392
3.02829
2.98714
3.4286
3.52481
16.1688
16.0103
1.40262
1.35663
-1.23784
-0.115456
-0.303222
-0.727995
17.6729
0.444722
1.42606
1.74278
2.1927
1.65538
-13.8879
-14.3252
-13.8067
24.6413
17.5153
16.903
17.671
18.1288
5.88345
6.13631
20.8265
1.7803
1.99782
5.91846
-10.2416
-10.2594
-9.28325
16.5893
16.5796
16.4167
-9.8985
-10.0861
0.327346
-12.4989
19.4118
19.3497
13.6736
13.5184
2.33825
2.52053
2.16668
2.01215
4.76012
4.57123
14.6206
-10.7218
-11.1901
-11.7042
3.04634
2.66793
25.6495
18.3867
18.2948
-4.64275
-4.89941
24.9717
22.0833
22.5315
22.8502
22.8862
-3.74447
-4.18703
-14.9268
-13.418
-16.7722
-11.9619
22.5696
-8.05884
-8.29093
-8.39784
-10.5749
-10.3352
-10.257
-9.37256
25.0985
25.2117
22.744
22.5985
24.8223
22.0935
18.1891
17.8952
20.7774
-7.66707
23.7121
1.77619
1.57375
1.76603
2.86556
2.85401
2.39742
1.06653
1.24812
1.54921
2.05994
5.34069
-10.111
-10.1907
-9.57853
16.3514
15.8906
16.3264
1.01118
1.27882
0.919166
1.92534
2.08375
2.31927
7.90116
3.07634
3.37595
3.2288
-1.29261
-0.941282
-12.5099
2.94572
2.36323
2.51656
25.1544
24.9629
2.25333
2.27397
2.56253
2.86486
-11.3493
1.45741
1.38032
0.691363
1.51386
1.93702
2.01836
1.83065
-2.68351
-2.48412
-2.83379
-2.36346
-9.87541
-12.0643
-11.9701
-11.94
-11.9824
18.3187
17.5451
0.425542
1.14891
4.2415
3.34835
-17.6407
7.95932
-11.7981
-12.6757
-5.90835
25.4272
-11.678
-12.1961
4.13375
4.70157
3.34148
0.577287
0.749414
22.9027
-7.66346
-7.6742
-6.79402
-8.7993
-9.16954
-8.87398
-10.749
-10.853
-10.8546
-5.3638
-5.66095
17.5844
17.2298
-0.0338141
-0.157428
0.506374
25.3668
20.4338
23.6604
13.8022
-11.8684
-11.9755
-11.0327
-11.8809
-13.9647
17.3392
17.0958
16.874
-7.5878
-6.792
-7.35074
-6.64569
-11.6358
-11.3894
-11.6034
-11.6913
22.5097
22.8467
22.4192
22.3976
-9.05203
-8.26481
-8.95104
-8.26194
13.5966
-5.89054
2.24522
2.12494
1.8701
2.20114
-2.37901
-1.95743
-2.12826
-11.6523
-10.8657
-10.3923
-10.9951
0.44882
0.607738
0.996743
2.0819
2.18446
1.91906
1.80949
1.47514
17.2269
17.6532
17.1617
16.7635
2.25371
2.12026
2.09705
2.14356
-9.77758
-10.056
-10.2478
-4.64284
-5.4087
3.39785
3.73635
3.1192
-13.2842
-13.8555
-1.52992
-1.37657
1.18196
1.66348
0.66165
1.23519
0.418608
-0.166056
0.372231
-5.99597
-6.21174
-7.16248
-7.54877
-7.06277
-6.98866
15.6251
15.8729
-1.33908
17.4448
17.4395
19.4094
0.651385
0.971652
1.32169
1.05214
17.4211
-3.52507
-2.7153
-2.64618
-2.02919
2.62495
2.28438
16.1557
16.3898
16.0076
16.2207
-4.04253
-3.65018
-4.47679
-7.31618
-7.7146
-7.82659
17.48
17.2281
18.0309
17.8529
-8.10538
4.86766
15.5614
-8.06224
-8.3635
-7.08375
-8.04661
-23.4171
5.90046
-22.9647
-22.5309
3.59599
3.89008
3.1604
3.36476
-2.50908
17.2931
17.5741
3.64953
3.43078
3.87604
0.0692188
-0.242208
-12.1167
-12.1601
-12.085
-9.31869
-9.01155
-9.25185
-8.78754
19.0664
5.64585
5.55904
-5.76652
-5.9967
16.5695
16.7486
16.6137
19.4986
-5.27506
4.63816
-0.902463
-1.17839
-0.989064
0.944755
-10.0521
-10.5521
-9.57005
1.39506
1.50494
1.17365
18.0111
18.0978
2.6969
2.32146
-8.15489
-7.8661
-8.61196
4.9161
4.61868
5.00884
-7.00072
-7.2465
-6.94333
-7.29898
-7.5052
17.8497
17.3244
17.6271
-4.45906
15.3011
15.0472
-2.25074
-2.39045
-1.27054
2.08258
1.44336
-12.5253
-12.4822
3.77349
3.47622
18.7775
18.3253
4.39184
4.13315
2.86362
2.45502
1.41491
1.44251
0.859971
0.875637
1.33271
1.32983
17.7682
17.5475
0.131315
-0.419062
-0.59188
-0.231351
-1.16906
18.0351
17.8577
17.746
22.5809
22.6966
22.3355
22.7048
16.8329
17.7193
17.7288
17.5656
-0.204231
-0.691461
18.5388
18.6544
3.04112
3.06694
3.50351
3.51702
3.36829
-12.3963
-12.3411
-12.3049
-12.1941
20.0031
2.54592
2.3655
19.1851
19.0363
18.7376
19.1163
-0.67957
-0.629813
-1.10226
-6.03034
-6.21755
-5.75572
1.51725
2.01117
1.0202
17.5569
17.6419
17.7962
17.9294
-4.48072
-4.16959
-3.85435
14.4352
-13.4425
-13.1609
-12.671
0.0681238
-8.19679
-9.1242
-8.6721
-8.79875
-0.601975
-0.875337
-0.0455949
-0.454889
2.617
-10.953
-10.9202
-10.4277
-10.8549
2.56047
2.26431
2.02571
1.87033
1.6689
1.66771
1.96048
1.68534
1.3609
23.2114
17.5509
17.6469
-12.4883
-12.4916
24.1951
-6.29282
0.263038
-0.228386
-1.00766
-0.698441
-1.82332
-2.33817
-1.67132
-11.9137
-11.4235
-27.4084
-26.5399
15.423
15.746
15.9538
16.1255
4.50727
2.59811
2.33564
2.70976
-25.9979
16.1658
16.3038
15.6026
15.7499
-9.42798
-9.09794
-8.80105
-8.15422
0.785129
0.836239
0.733253
4.51205
-9.37773
-9.10913
-9.44308
-9.47223
-14.3679
-13.769
-12.4827
4.54999
4.32324
5.30503
17.9806
17.574
17.5989
17.5601
8.86957
8.85409
-3.17365
-2.2265
-1.76304
-1.84841
18.5872
18.3398
18.1751
-8.99537
-16.1732
-17.5794
18.8736
18.7172
4.67939
4.65384
4.88139
2.25099
2.2215
2.40703
-12.5759
-12.7738
-12.5751
15.7476
15.447
15.6198
16.0958
22.5426
17.42
17.782
17.2205
17.4489
-5.67643
-10.9395
-5.36647
-5.80444
-1.71186
-1.53908
-0.626807
-0.852879
3.04724
2.27025
2.14954
2.10318
2.57701
-1.11926
-0.0288785
-0.773083
19.4991
3.22255
3.08239
3.16773
-1.83842
-1.07064
-9.48125
-9.6255
-9.55411
-11.1202
-10.5518
-11.1372
5.81518
23.1217
4.35554
21.7774
21.863
2.14424
1.63487
2.23209
-5.90039
-5.84339
-6.13032
0.432544
-11.5884
-11.896
-11.743
18.4675
18.7717
1.43061
1.09425
0.875785
1.17341
4.09846
4.14014
21.785
21.8389
1.40134
1.08176
1.67848
1.51708
2.22634
2.54171
18.4259
4.20354
4.37878
4.15315
-1.41141
-0.931098
-1.36133
-21.4414
-8.13164
-8.68583
-8.87925
-8.40536
18.3527
17.8881
17.7522
18.0571
-5.98518
-6.96962
-6.42576
-11.6475
-12.9184
-16.2398
-13.0409
-18.9574
0.00034875
-0.158774
-1.29802
-1.03765
-6.93903
-7.49736
-6.94551
-6.15333
3.56417
3.3617
2.74788
3.08277
19.3754
15.2368
14.9419
15.2438
-6.99955
-6.57961
-6.82893
-7.04573
-14.3371
-12.8922
-10.3814
-10.2277
-9.50258
-5.55208
-5.19376
-5.43902
-4.5209
15.4091
15.6282
0.573526
0.527079
-9.81229
-10.255
-10.2198
-10.2513
0.883324
-6.43138
-6.06473
-6.38716
-6.13798
1.97094
2.15197
2.11317
22.8473
17.777
-11.8644
-11.3165
-11.4085
-10.717
1.31349
1.55766
-10.8972
-10.8809
3.46617
19.0826
1.82322
1.55178
0.500896
-5.68094
5.33447
5.05338
5.17471
-7.21572
-6.53801
18.7564
-10.3739
-11.5729
-10.7697
-13.6621
-0.15704
0.239696
-0.0611582
21.573
21.5248
25.738
-4.93317
18.681
2.26819
2.36947
1.84114
2.17221
-0.587993
-0.0892472
0.651987
0.283126
2.21935
2.25131
2.34097
2.32673
-10.8245
-10.2044
-9.65404
-10.4926
2.04076
1.9541
3.07182
2.11202
-7.68046
-7.17418
-8.24857
-13.7142
23.2853
-7.92004
-11.7024
-11.2221
1.0509
1.02906
20.4838
-15.2583
2.2487
2.67485
2.38831
19.2651
-0.298634
-0.685765
-0.163417
0.47445
3.68986
1
0.532706
1.45049
1.73544
21.7353
21.87
21.1708
21.4701
1.81049
1.9172
2.06113
1.54488
-0.534058
-0.864162
-1.18463
-0.760558
4.02748
4.23698
4.36012
3.99403
18.3655
18.3234
17.6649
18.0004
17.9021
18.0651
-9.06358
-8.2032
-9.18065
-9.54488
-0.0661669
-0.185849
-0.493381
6.24601
-12.2293
-12.2794
-12.0977
-11.7231
-11.7018
-10.5401
-12.0428
-12.7937
-13.1637
-13.4755
-15.7926
2.10375
1.60449
25.7504
18.0247
17.7169
17.5957
17.3694
-14.6681
-13.7009
-13.3345
0.523552
-5.46712
-5.83161
-5.27981
-11.6909
-11.8173
1.97154
-11.3005
-11.2272
-3.39832
-3.9727
-4.32211
-9.71895
-8.71822
-8.54419
-9.39808
-12.3382
-12.3888
-12.2622
7.8052
6.87403
-8.96971
-8.09214
-8.6188
25.7627
-8.58626
-8.26115
0.945016
1.03746
-0.0317095
1.07484
0.908569
1.1515
-13.4705
-12.2136
21.0673
21.2854
0.490354
0.973564
17.6857
17.8206
17.7891
18.0579
-5.32288
-11.157
-11.1379
4.75296
4.88168
4.20367
4.78374
0.531848
0.518188
0.921804
0.66016
0.299783
0.386318
0.816051
0.600247
-0.788775
-0.700102
-0.834607
-12.8316
-12.5551
-11.7779
-12.361
-10.6212
-10.8097
12.8011
-8.35074
-8.35074
-8.40264
4.70332
18.55
18.7646
18.7061
-1.16036
-1.28573
-0.0394019
0.121386
0.0944054
0.531864
-10.3045
-9.71139
1.52312
1.74905
1.16907
1.51886
1.32635
1.77111
1.8273
2.10472
17.8681
17.8412
18.3101
18.1736
-12.3734
-12.3807
-12.3423
19.0421
18.8012
18.4142
18.719
4.66848
4.77144
4.43272
18.6731
1.89188
1.4547
1.4834
1.41682
-18.245
-16.2107
-19.9631
24.763
-3.82852
24.9665
25.1565
25.2216
23.1653
-14.7754
22.8747
23.568
23.6263
23.1204
25.7915
20.8058
25.5504
25.5807
24.7637
24.8053
-11.9583
21.9825
21.9347
0.434211
24.0695
-6.2485
21.5897
23.3446
23.3528
-6.8825
23.7966
0.686946
24.5665
23.4396
23.3761
21.4801
-1.21634
-0.109311
21.0779
20.9421
-16.581
24.9474
1.19659
2.00943
-1.30314
5.7947
6.7482
-7.42513
25.4576
22.5055
25.6993
25.6464
25.598
-15.1864
-15.7146
25.2251
-15.6745
23.8401
23.7266
22.7332
24.1253
-4.37739
-16.4215
0.394551
0.517544
25.8101
-19.3473
-19.8593
21.6823
-26.6675
20.7117
20.7075
20.6924
2.5171
2.40099
25.2115
-0.774074
1.26882
1.47273
-19.3965
22.8051
22.8088
25.3976
4.23134
23.9625
22.065
25.4783
21.5549
22.942
2.54224
23.7043
19.1876
19.2227
0.548577
6.66359
22.5637
17.5813
23.0813
25.0077
2.10222
20.1313
25.2283
23.1509
23.198
25.0848
24.317
24.2542
23.6342
24.0227
23.9379
21.2054
21.0781
23.1873
20.2475
23.8609
19.7692
0.728157
24.2975
11.2155
20.6607
-1.20336
23.9206
23.5125
23.6716
23.7326
6.07108
20.9868
20.8713
-27.3706
25.5848
25.5994
23.7465
-0.482105
-0.512763
-21.96
23.7755
-28.3389
-27.4048
24.1164
17.5079
17.7205
-1.34087
18.5949
0.0910043
0.0333912
18.1515
22.3715
23.1676
-0.745632
-1.18434
23.2719
22.2807
3.65152
20.7865
24.8881
22.1168
19.3528
22.3858
21.1533
-10.444
-10.667
-10.3006
25.275
23.1395
-12.5471
-12.6295
3.89114
3.73677
-14.311
-11.7734
-11.3044
0.563848
24.6979
24.3558
-6.26195
1.29334
22.8871
22.7637
23.0541
25.0608
24.9852
22.6865
22.5216
23.9287
25.0922
22.4867
22.3081
24.3679
24.2927
23.6351
23.6277
4.60805
22.1736
21.9303
23.3234
24.6677
24.2306
21.7565
25.4775
19.191
19.3739
23.3078
23.2339
23.2682
24.3807
21.359
21.2221
1.53871
21.8122
-0.238984
-0.364242
-0.357696
-13.5268
-2.64695
24.0889
-17.6984
23.3762
2.11093
19.5287
25.347
22.7047
22.5455
22.6141
24.6888
23.8338
0.959763
10.3944
9.59243
21.9608
22.1191
-1.17066
0.851687
-3.53406
-3.29131
23.5465
22.075
0.242513
19.0539
19.4314
24.5093
23.2021
-22.6145
7.84639
7.21662
22.5509
-4.93916
22.5993
22.375
22.4142
25.3886
-6.69625
-7.71778
-7.53384
14.6434
23.2887
-0.674664
-0.972881
3.76222
0.204935
-21.0367
19.4228
19.8724
0.816227
0.67798
0.515896
20.4066
1.67566
25.5603
25.505
24.8278
22.916
-23.8284
22.7859
22.8194
22.8863
22.9591
22.3718
23.9619
24.0373
-2.14615
-6.57874
21.6005
8.61009
3.14532
3.16431
19.5753
-0.703057
-0.85126
-3.28722
-3.70768
25.229
-26.3395
-1.09789
-1.55952
22.9408
23.0713
20.5628
20.4845
0.109338
-0.0978936
-0.492308
-0.788553
22.6498
-8.14671
-7.8657
1.09547
23.0667
23.0206
7.53508
23.6635
23.2259
22.2311
24.3459
20.0701
23.1968
-2.08752
22.0799
21.8628
-18.6277
4.54425
20.0993
-18.7439
7.77164
8.40866
7.66064
-18.6102
1.78545
4.60176
-4.90927
19.9899
25.1756
23.1058
23.2023
23.0673
-2.19436
23.1038
23.1371
20.4036
-5.15051
-7.34864
-5.99197
20.429
19.4071
19.2854
-0.442931
-0.177095
-14.103
21.6
21.5237
21.9048
21.3234
-0.891088
-1.34783
3.40121
3.08428
-1.47498
-1.24971
0.678097
25.0203
25.08
2.01564
24.2702
-6.63518
-1.54007
-1.39813
-1.11322
-11.4185
-11.0296
-11.2175
0.105018
-4.16908
-4.74451
1.73553
0.909178
1.03872
0.160091
2.24956
-4.13189
-4.03772
24.3056
24.2758
0.338242
21.261
-10.7431
-11.0292
-9.56995
-2.42961
22.3251
18.5941
22.1105
9.55851
24.8396
20.3328
20.3187
0.807894
0.823525
0.983467
20.9208
20.8675
24.7046
0.274781
21.8559
9.60704
20.5259
20.4949
20.0096
0.453624
-1.57992
-9.13261
-9.37062
-4.60298
-5.13838
24.0051
23.9378
1.35051
21.5679
23.2273
24.5893
-0.460346
-0.901251
0.700368
-5.29566
0.608198
1.54874
1.41036
24.3412
20.5398
2.45574
2.35587
1.78966
2.17234
-4.44262
-3.37222
3.12832
3.14909
7.99374
8.77952
25.4563
0.597881
0.244776
-1.8853
0.16348
0.227967
0.229962
-0.825966
-0.394171
0.641072
0.554471
0.322485
-0.861961
20.266
20.151
19.4482
-7.16639
-6.88366
-7.64942
-0.944663
-1.11765
-6.4161
-9.78997
-10.0734
-1.94868
-1.51487
-4.16194
-4.32354
19.2928
19.5904
24.8149
24.0612
3.93091
-6.35945
-6.55065
-6.52318
-0.682201
23.9564
23.852
-3.0173
-2.51591
21.9657
24.251
22.5397
22.4441
24.999
18.5709
18.7671
18.5877
0.81186
0.705413
21.7757
24.6822
24.6382
24.9054
24.8777
7.39333
8.64838
-8.21729
-7.25685
-10.7975
1.73711
-8.94517
-8.45302
-4.77933
-4.99654
-5.29447
-5.76647
-5.8037
-7.90385
-8.34216
21.6285
21.5389
0.531509
0.617698
-0.835184
-6.15264
20.1623
24.6063
20.2055
24.6076
22.3326
22.4803
22.409
25.0568
-6.24071
-2.93224
-3.264
-3.53159
-3.51344
-3.06673
-2.91176
-13.2157
-13.6201
19.8009
6.84497
22.1545
21.7969
7.26704
20.8903
-12.36
-0.084077
23.9603
23.7592
-0.62038
-0.654043
20.0861
-7.08001
-6.99386
25.0278
-10.371
-9.64646
-5.17225
18.3377
18.3354
-2.38246
22.5781
24.4969
18.3991
18.4189
19.9832
19.8884
19.6457
0.489452
0.577233
0.45568
-6.83006
-1.08357
-0.845634
1.36043
0.944136
2.56912
2.11332
2.24409
19.421
19.2185
19.2537
-4.05183
-1.02302
24.3513
0.872851
0.878238
0.915483
1.6451
-11.3897
18.5074
19.1453
18.8074
19.4753
-4.05962
17.8055
17.7022
21.3205
20.9267
18.3471
4.85209
15.5229
15.0212
14.5397
23.4022
23.2964
-3.67421
-3.94267
-1.61691
-1.42144
2.59841
-5.81055
2.06298
23.1564
25.2373
25.1793
1.82985
22.5574
-0.439857
-15.6357
18.7757
18.5762
18.5191
19.9097
20.0667
4.93602
-6.22143
-6.0648
-6.0918
-0.241023
23.1735
24.3134
23.903
-0.278969
0.690326
3.0684
3.30672
17.907
-0.807754
-1.37281
24.0445
24.0451
22.3986
22.4954
22.2655
-0.575977
23.9105
23.8942
0.863231
0.115635
17.5381
22.3071
22.2555
20.0386
0.926752
2.22754
1.85386
19.5998
2.65303
18.1498
23.0261
18.8476
19.0518
22.2953
-0.619518
22.82
-3.53789
25.1203
19.9684
20.0243
25.3599
25.3956
25.4074
25.0599
22.7096
1.67248
22.8241
22.9612
-9.98741
19.3174
1.78662
0.937071
1.10488
1.009
1.15156
-1.67559
1.89859
1.79948
-0.712355
-1.10365
-1.36016
20.049
19.9834
-2.31827
-2.55834
-6.56238
-6.77809
-6.85871
-2.03851
-1.9167
1.5222
1.57962
-4.59766
9.53233
10.4685
17.3871
17.2139
1.90015
2.10768
-5.94111
0.720758
0.168569
0.777813
0.75344
22.0257
5.291
17.752
17.2938
-3.93457
19.8654
-17.8855
24.9705
0.214587
-0.547456
2.04888
2.26363
-5.29422
-5.36637
-5.09439
24.0217
15.1324
15.8663
16.445
1.57331
1.34449
1.19001
23.034
18.7045
18.3686
18.2774
18.229
2.93626
2.27562
2.26394
-7.9063
19.1325
19.0936
19.1996
17.906
17.8436
25.3613
1.17483
1.46025
1.20457
-8.33189
-8.19683
-9.63293
-8.90738
2.73017
2.90578
18.2349
18.01
2.91746
2.99123
18.9387
18.7281
18.7853
-3.48049
-3.11254
0.591903
0.486179
19.046
19.1563
0.373969
-9.7028
-10.1569
1.78684
1.57385
1.93704
-8.69571
-9.03904
0.723383
0.67346
18.5029
18.7493
18.4708
-8.23862
-8.2313
0.103203
0.333651
-0.0158592
-4.24957
-3.93307
-11.4411
-11.6891
22.4519
1.63597
1.50443
-13.3262
4.73604
5.07444
20.6544
20.8671
20.4092
18.8246
18.9599
23.0526
1.47761
0.483656
0.21648
0.815404
0.98048
21.5424
3.19119
-0.182701
-18.2843
11.4224
11.9257
-7.9407
-7.7643
24.6646
-1.91994
5.46124
5.4158
3.85142
-10.3844
17.0347
16.5766
-9.8877
20.2501
19.904
21.9211
18.283
18.5391
-2.09989
-5.92041
-6.00651
3.1793
17.6989
17.7515
17.8066
19.4121
19.9227
20.0742
21.6255
21.725
-4.11361
21.9868
21.8793
17.5881
18.202
18.2042
24.8426
24.8996
1.63102
1.58014
1.47717
0.84793
0.260604
21.1154
21.5811
21.2746
25.35
-11.9569
2.03689
2.04376
2.50234
2.61407
20.9549
3.76099
3.16227
3.31177
-5.93269
-3.46011
-2.33051
-6.24814
-6.35981
-0.0263958
0.0792753
-4.73074
-4.12625
-10.9666
-10.6299
-10.9187
1.10178
17.0154
17.4085
-0.381541
-0.555723
-0.0679341
18.8026
18.5986
18.4892
-1.32618
-1.22311
-1.46726
-10.8692
-23.9753
4.90826
5.06229
-11.0593
-10.7585
0.965919
1.3242
18.4084
-10.3658
-10.3247
2.58378
2.46066
-0.0486802
-0.00606339
6.15081
6.73571
7.71208
19.6569
19.6207
-14.7386
18.4011
18.5394
1.56936
0.685121
1.08501
1.23439
0.635548
-4.79997
-2.93605
-3.81781
7.33375
8.12445
9.50944
8.99796
19.674
19.9291
-1.37051
-1.48664
1.03845
1.24236
23.0303
25.302
18.3807
18.3093
20.701
-5.39101
-5.068
-5.01522
-0.800421
24.5417
16.8834
17.023
3.13713
2.96706
21.0108
21.0163
-10.4509
-10.5042
1.42765
0.794773
0.537342
19.9092
20.0439
4.12333
4.52636
19.1845
19.2909
22.6529
22.4952
-22.4505
0.210402
2.25653
2.16356
-3.16246
-5.2087
23.3669
-16.3674
-3.80179
-9.958
-10.2703
-3.53386
-2.81658
-5.51922
-5.46981
-0.615494
-0.541629
-0.990498
2.59855
2.82674
0.136773
0.646451
0.425417
23.8883
23.0795
25.4257
22.0608
22.1484
21.6239
22.0842
1.35684
1.86599
1.4114
-4.95578
-4.93423
2.57104
0.51409
0.37195
0.42175
-4.14028
-4.06734
13.9692
21.7615
8.00591
17.8928
17.5754
-13.2469
7.89238
-1.16066
8.82282
-25.4572
11.715
-12.2654
-14.2752
-11.9926
4.85847
5.34458
8.14737
6.18489
-12.0452
-9.29509
-8.72274
7.71096
8.70901
8.93334
11.9483
13.7744
-5.78383
-8.11077
6.93996
4.43472
8.69786
3.11464
-12.1051
-12.1971
10.8082
11.8207
3.54283
-18.434
-22.6147
-9.99266
12.2274
-8.19489
3.07841
10.9295
11.0088
6.10502
6.15762
-7.55545
-8.03562
-9.22424
-12.6465
-12.5394
1.06892
-1.36897
12.3448
12.5755
3.15869
2.64277
13.8747
-10.6883
12.9165
11.0868
1.00276
-2.82265
12.1678
6.06005
10.7164
2.25112
14.0147
19.3241
5.64916
9.57487
7.3221
2.75758
9.6074
4.05343
4.38807
7.22638
7.10793
-14.5472
-14.7974
1.5808
-4.91944
-20.5655
5.93482
-5.69637
-8.20337
14.2222
-0.0844609
12.1094
-0.582592
-1.56775
-12.6726
-15.017
-9.26322
-10.5265
0.393959
-12.1045
-12.0073
5.2006
-1.91997
-2.8796
-1.63931
-0.245673
0.9496
16.1214
-9.40075
-2.92131
-2.02
-17.8997
22.5915
-4.67076
-30.6056
-23.3387
-26.43
3.12847
-13.8401
-15.3421
11.5928
10.6032
-8.94052
10.3183
-8.8415
-10.1225
0.441326
0.385639
0.291927
0.0770963
-11.6223
1.06037
3.74921
-4.78088
10.8084
-0.544289
-1.63877
-15.4774
16.0646
7.21137
10.5038
7.14961
6.97349
-21.9439
-12.4232
10.0366
-18.865
-6.16305
13.721
13.997
11.6518
12.6202
-15.2883
4.19546
2.00773
1.10544
10.2928
10.0532
8.82182
8.26447
8.95013
4.69769
11.5447
6.363
-5.09544
-1.76397
-0.448116
-1.69951
-20.8821
15.7192
-4.17981
4.33065
4.58968
-11.7175
-13.2139
23.1891
-18.6036
-20.0581
17.1112
12.5036
-5.55795
2.34524
-5.48362
-6.00642
4.64521
12.1058
0.714452
-13.2424
1.98511
0.92246
2.20125
2.93801
15.9717
15.9266
-15.8909
0.833705
-5.94747
-5.74703
2.1687
-7.19033
-11.414
11.7178
-0.180835
0.676991
13.7961
13.7322
7.45533
7.91969
2.36424
2.79194
-0.61936
-1.14659
-1.57547
15.9136
-4.81454
16.6314
16.3641
16.7828
-9.21624
-9.71368
-10.8739
6.39
-7.40038
13.5433
-7.1518
-6.14045
-7.48411
4.84629
-27.0086
-7.80348
9.94335
10.9786
10.6231
13.5864
12.8793
12.3398
9.93484
9.90534
-12.952
6.73659
11.8947
11.2879
-7.27483
-28.3558
10.6768
-25.836
-20.7427
3.23903
4.00327
5.02268
5.51521
-18.3434
2.16332
3.06951
3.82104
12.2509
11.4147
1.28373
-2.21964
-2.83346
-0.840608
-0.242371
-16.9231
-15.7307
2.12635
1.15944
12.6851
11.4612
11.1018
4.61757
5.3254
9.48149
8.37164
6.60833
9.15154
8.7665
7.9713
8.18065
8.41947
10.3802
2.93623
2.70843
2.65043
-4.71197
14.2414
7.8397
8.33014
12.1214
-5.9131
16.0305
0.0640361
0.234732
-13.286
-2.81305
-2.10851
-2.86546
-11.6812
-11.4606
-0.171585
3.50092
2.76688
-3.04711
-1.95109
17.0093
9.10815
2.55292
3.4169
-4.40369
-14.4765
7.92463
14.5116
14.6129
9.39464
9.09125
-0.577769
-1.10846
-1.7237
-1.03861
-0.450256
5.02709
13.2434
12.3932
4.51826
16.4251
16.7998
16.7872
13.2514
13.4565
5.82914
12.7766
4.57514
5.06678
-3.18686
-2.16343
11.5838
10.6289
2.43507
3.1869
9.60878
10.3419
-7.51915
1.32668
1.44684
1.40377
5.57194
-13.2129
-10.3093
5.39419