/*--------------------------------*- C++ -*----------------------------------*\
  =========                 |
  \\      /  F ield         | OpenFOAM: The Open Source CFD Toolbox
   \\    /   O peration     | Website:  https://openfoam.org
    \\  /    A nd           | Version:  6
     \\/     M anipulation  |
\*---------------------------------------------------------------------------*/
FoamFile
{
    version     2.0;
    format      ascii;
    class       surfaceScalarField;
    location    "1500";
    object      phi;
}
// * * * * * * * * * * * * * * * * * * * * * * * * * * * * * * * * * * * * * //

dimensions      [0 3 -1 0 0 0 0];

internalField   nonuniform List<scalar> 
44611
(
1.52121
-2.14314
0.62193
1.52121
1.44609
-1.44609
1.93944
-0.49335
-1.31919
-0.707737
2.02693
-1.31919
-0.0921135
-2.17116
2.08681
-0.565598
1.29415
-1.29415
0.180631
1.85448
-2.17628
0.73019
2.37679
-0.340671
0.413103
-1.73229
-0.795761
-1.19893
0.795761
1.29105
-0.552253
-1.33611
0.552253
0.741899
-0.594207
-0.824373
0.824373
-1.17128
1.35191
-0.0104455
1.28965
-1.27921
-0.137021
-1.86069
1.99771
1.52257
-0.214986
-1.30758
1.21983
-1.21983
-1.09991
1.09991
-1.51174
1.51174
-1.19453
1.19453
1.50269
0.0198774
-1.9208
0.409057
-0.9203
-0.786278
1.70658
-1.62804
-1.26587
1.26587
0.124919
-1.42457
1.29965
-1.49375
1.49375
-1.27974
-0.21967
1.49941
-1.37012
1.37012
1.65517
-0.143426
-0.460639
1.51072
-1.05008
1.7213
-0.501477
1.32642
-0.214193
-1.11223
-0.700382
1.09753
-0.397152
1.18647
-1.46028
0.273817
-0.881153
0.881153
-1.14577
1.03964
0.106128
0.952478
-0.952479
1.19066
-1.32768
-2.28016
0.811668
-0.811668
1.01445
-1.22944
1.82612
-2.04111
-1.60636
-0.621686
-0.818767
-0.787593
-0.899117
0.899117
-1.04033
1.02988
1.929
0.0932728
-1.46339
0.104251
-0.29922
1.21493
1.16186
1.73229
0.165964
0.531971
-1.21589
2.03466
-1.46339
-0.982754
-0.477528
1.29978
-1.29978
0.90466
-0.420152
-0.484509
1.3306
-1.14555
-0.185049
-0.802401
-0.651151
1.45355
0.00102155
-0.0796939
0.0786723
1.6778
-0.388148
-1.69525
-0.16544
-0.356069
0.907384
-0.551315
-0.038316
0.0450134
-0.00669743
-0.13661
-0.610732
0.747342
-1.16032
0.45994
0.0116034
0.0598275
-0.0714309
-0.0325553
0.00739345
0.0251618
0.856271
0.213067
-1.06934
-0.00203869
0.00203869
1.47499
0.524538
0.240542
1.23445
0.798716
0.879084
-0.0229902
-0.00956506
1.23256
-0.504463
-0.728094
0.917941
0.314615
-1.07064
-0.624615
-0.264211
-0.806424
-0.980684
-0.476537
-0.908847
1.38538
0.00412015
-0.0424361
-0.00868437
0.0341204
-0.025436
-0.72809
0.853009
-0.649605
-0.285254
0.934858
-1.17299
0.953321
0.000415553
-0.000415553
0.0911357
0.816248
0.995796
0.650808
0.863116
0.467482
1.1593
-0.296182
-0.077702
0.637211
-0.559509
-0.364297
-0.479237
0.843534
0.410384
-0.744483
0.334099
1.14031
0.859684
-0.747511
0.75629
-0.00877859
-0.792488
1.06631
-0.889721
0.199051
0.690669
-0.888266
-1.11659
-0.843579
-1.43658
1.10779
0.336675
-1.44446
0.927761
-0.0714896
-0.199671
0.746751
-0.54708
-0.956031
-1.08508
-1.43257
-0.84963
-1.12055
-1.61026
0.760627
-0.867977
1.27703
-0.345847
0.806535
-0.460688
-0.980574
0.17415
-0.41909
-0.536698
0.955788
-1.30938
0.89029
-0.264984
0.829841
-0.564857
-0.83255
-0.0762965
0.753545
-0.617489
0.830556
-0.893234
0.594014
0.0492591
-0.0376557
0.0362525
-0.0449368
0.595849
-0.810042
0.848616
-0.682651
-1.49269
0.681639
-0.792604
0.110965
0.811055
-0.706804
0.900995
-0.0906861
-0.810309
-1.40007
0.000955806
-0.000955806
0.000955807
1.06849
-1.06849
1.07184
-1.07184
-1.1544
1.36182
-0.207421
0.625467
-1.07775
0.452288
-0.295094
1.36693
-0.899344
0.58158
0.317763
-0.92952
0.030176
0.831639
-0.623862
-0.207777
0.0292379
0.337127
-1.12962
-1.25374
1.25374
-0.440266
1.35821
-0.106685
-0.464068
0.0066143
0.457453
-0.153234
-0.310834
-0.642379
0.489145
0.371934
1.02274
1.4024
0.616125
-0.0201986
0.973519
-0.0780164
0.931025
-1.24884
0.35966
-0.838898
-0.282719
-0.934354
0.333889
0.600465
-1.11972
0.185362
0.0899596
-0.799761
-0.963903
-0.315303
-1.45725
-0.727063
-0.232669
1.72642
1.06698
-1.20212
1.30824
-0.0631592
-0.681324
-1.05198
1.69549
-0.643507
0.0852307
-1.41054
1.3542
1.97613
-0.860335
0.860335
-1.64305
0.782714
-0.00564994
-0.00251011
0.00816006
-0.0255474
0.0302274
-0.00468001
-0.00666286
0.00410116
0.00256169
0.0474927
-0.0573102
0.00981755
-0.00393916
-0.00421992
0.00815908
0.00414693
-0.00808609
-0.0551078
0.00945628
0.0456516
-0.594113
0.294914
0.299199
-0.0637132
0.0492667
0.0144465
0.0149633
-0.0642912
0.0493279
-0.00417794
0.00832487
-0.0049715
-0.000540944
0.00551245
0.0181784
-0.000695931
-0.0174824
-0.00180074
-0.0090199
0.0108206
0.00609533
0.00468915
-0.0107845
-0.00207478
-0.00545874
0.00753351
0.00507231
-0.00444095
-0.000631359
0.00792417
-0.00222676
-0.00569741
0.0133179
0.0126258
-0.0259436
0.0385732
-0.0252553
0.000967364
-0.00605087
0.0050835
0.00559686
-0.0046295
0.634831
-0.43578
0.0878057
-0.0451
-0.0427057
-0.0188129
-0.0209372
0.0397501
0.0285889
-0.0489299
0.020341
-0.0038248
0.00382481
-0.00653588
0.001706
0.00482989
0.0334011
-0.0119996
-0.0214015
-0.0490936
0.0103749
0.0387187
-0.0859119
0.0153205
0.0705915
0.00356701
-0.00819853
0.00463153
-0.00803406
0.0054771
0.00255696
0.10624
-0.0346705
-0.0715689
-0.00398658
0.0627807
-0.058794
0.0449509
-0.0433088
-0.00164213
0.00153974
-0.0199994
0.0184597
-0.0587564
0.0156095
0.043147
-0.0386163
0.0541496
-0.0155332
0.00326115
-0.00758557
0.00432442
-0.00589409
-0.002192
-0.00593599
-0.00717351
0.0131095
-0.0101559
-0.0415758
0.0375893
0.0314936
-0.0730694
-0.0037139
0.00990894
-0.00619504
0.0321849
0.00853123
-0.0407162
0.0200142
-0.00583671
-0.0141775
0.00308784
-0.00308784
0.0091582
-0.0283477
0.0191895
-0.00700292
0.00434204
0.00266089
0.0612725
-0.0592321
-0.00204039
0.0307203
0.0322456
-0.0629658
0.0567393
-0.0260191
-0.0045792
-0.00242373
-0.020115
0.0212319
-0.00111693
-0.00787118
-0.0122438
0.00370803
-0.0108815
-0.00626386
0.0077388
-0.00147494
0.00444702
-0.00673932
0.00229229
-0.0242682
0.0392315
0.0207452
0.0107864
0.00739196
0.0181799
-0.0248218
0.0308236
-0.00600178
0.234821
-0.196704
-0.0381173
-0.00636453
0.00265912
0.00370541
-0.62876
0.343507
-0.0219251
0.0140539
0.0859637
0.463982
-0.549946
0.055285
-0.071891
0.016606
-0.00347148
0.00614435
0.0130522
-0.0191966
0.00128312
-0.00128312
-0.0564556
0.473607
-0.417151
0.0133695
-0.00208905
-0.0112805
0.00825886
-0.00401643
-0.00424244
0.00512309
0.00280108
0.00913149
-0.0283873
0.0192558
0.0191363
-0.0219776
0.0028413
0.0107867
0.00834957
-0.0262987
0.0533651
-0.0270664
0.0046162
0.00364266
-0.00245754
-0.003907
-0.0126158
-0.0177108
0.0303265
0.00213183
0.00879197
-0.0109238
-0.00356506
0.0057157
-0.00215064
-0.00680051
0.00323545
0.00598331
-0.000267609
0.000434199
0.0151915
-0.0156257
-0.00926148
-0.0293688
0.0386302
-0.00977869
-0.0358054
0.045584
-0.43039
0.355612
0.0747778
-0.033955
-0.00466131
0.0183456
0.03096
-0.0493055
0.0164429
-0.00333335
-0.0217226
0.0215509
0.000171684
-0.0187694
-0.0029532
0.0273185
-0.0165318
-0.0498416
0.029518
0.0203236
-0.00133451
0.00642113
-0.00508662
-0.00416141
0.0556044
-0.0514429
0.0571112
0.0496139
0.00599051
-0.00149878
0.0243076
-0.0228088
0.0162763
-0.0158421
0.0147775
-0.0067137
0.0227643
-0.0160506
0.00526073
-0.0195808
0.0143201
-0.00936172
-0.00894715
0.0183089
0.00989639
0.00654647
0.00053466
-0.00240069
-0.02735
0.0189269
0.00842313
-0.0227492
0.0253754
-0.00262613
-0.0500993
0.0443023
0.000185568
-0.00672145
-0.00379017
0.00568929
-0.00189912
-0.0269423
-0.567171
0.0583673
0.0367251
-0.0950923
-0.0134611
0.00692751
0.00653354
0.0106313
-0.0071066
-0.00352469
-0.0492728
-0.0247869
0.0740598
0.319227
-0.526923
0.207696
-0.00501676
-0.00513915
-0.089195
0.223156
-0.133961
-0.918534
0.307802
-0.00557137
0.00635886
-0.000787491
-0.00779813
0.0071022
0.0340271
9.33145e-05
0.0256391
0.00838798
0.0244009
0.00739575
0.0138361
0.0126565
0.00407888
0.00975726
0.000852429
-0.0238426
-0.01663
0.00664274
-0.0159574
0.00931466
-0.015589
-0.00104102
-0.00894624
-0.0249868
0.000166105
0.0248207
-0.0392663
0.0138302
-0.246473
-0.183917
-0.0256686
-0.0380446
0.0232455
0.0309041
0.0316686
-0.389567
0.491819
-0.102252
-0.509392
0.500614
0.0016584
-0.0016584
-0.00602599
0.00257155
0.00345444
-0.0763691
0.0270963
-0.00171565
0.0466666
-0.433291
-0.485243
0.164354
-0.597645
-0.552284
0.0670412
0.00270531
0.0294796
0.0262678
-0.0269546
0.000686872
0.041622
-0.0469503
0.00532828
-0.00722375
-0.0147538
-0.0139375
-0.00507244
-0.00968139
0.0577479
-0.142167
0.0844195
0.244787
0.220997
-0.465785
0.343863
-0.0990762
0.555096
-0.0180045
0.0218327
-0.00382819
-0.0158732
0.0228038
-0.00693054
-0.0338777
0.0446364
-0.0101403
-0.0490092
0.0591495
0.0365023
-0.000249867
0.0263621
-0.0351531
0.0282225
0.0034201
-0.0216191
0.0055129
0.00305823
-0.00857113
-0.00292276
0.00728846
-0.00436569
-0.0480339
-0.00105968
-0.015284
0.0438729
0.0276637
0.0210135
-0.0486771
0.0365894
-0.0300868
-0.00650264
0.0313795
-0.0303579
0.0329117
-0.0287916
0.00806846
-0.00231811
-0.00575036
0.510689
0.124142
0.582789
-0.0720995
0.885999
-0.418516
0.0862375
-0.00768707
0.000959661
0.00672741
-0.00838951
0.00273957
-0.00972117
0.00671436
0.00300681
0.00172009
-0.0114413
0.0118861
-0.00517177
0.0048671
0.0195631
-0.0244302
0.00955467
0.00298272
-0.0125374
0.007326
-0.00812164
0.000795633
0.00564094
-0.00736081
0.00171987
0.00344075
-0.00723092
0.0128478
-0.0316607
-0.00878085
-0.00652641
0.0153073
0.00596587
-0.0147467
0.00730754
-0.0138339
-0.0209516
0.0113865
-0.00468754
0.0310496
-0.00832835
0.0120364
-0.00697891
0.011846
0.0238824
-0.48948
0.54614
-0.0566595
-0.0221143
-0.00382834
0.0259426
0.00136911
0.018194
0.0143657
0.0219358
-0.0761568
0.0542209
-0.0336274
0.0555632
0.000528138
-0.00524314
0.004715
0.00588122
0.000102098
0.00640935
-0.00514104
0.758697
0.00980353
-0.7685
-0.0516117
-0.512771
0.193813
0.318958
0.0358893
0.00573269
-0.00805808
-0.0352507
0.0278312
-0.0398243
0.0715848
-0.0317605
0.442749
-0.547801
0.105052
-0.038945
-0.0299593
0.0689043
-0.0730985
0.0341535
-0.357641
0.59291
-0.235269
-0.577218
0.557019
-0.0595252
0.163916
-0.104391
0.107693
0.127128
0.00324076
-0.00311228
-0.000128481
0.254862
0.114654
-0.369516
0.261477
0.0185249
-0.0169852
0.00904071
0.024827
-0.0338677
-0.0216665
-0.0122112
-0.0327736
0.0229949
-0.0165543
0.0501036
-0.0335493
-0.88612
-0.188225
1.07435
0.571505
0.373731
-0.945236
0.470326
0.287443
-0.757769
0.180666
0.28966
-0.507266
0.618231
-0.466253
0.630607
-0.306197
0.392161
-0.440554
0.362538
0.754698
0.012076
0.021325
-0.0212075
-0.00361429
0.030687
-0.0221558
0.00513966
0.0312093
0.00184678
0.00878451
-0.00757834
-7.13551e-05
0.00764969
-0.00573156
0.00871316
0.505881
-0.041899
-0.0901974
0.447885
-0.357688
0.415684
0.00131921
-0.00211274
0.000793528
-4.14319e-05
0.00238789
-0.00234645
0.0589213
-0.767085
0.708164
0.00227269
-0.000208138
-0.00206455
0.162111
-0.104363
-0.0392265
1.17954
0.285641
-0.962663
0.677022
-0.00155952
-0.00226527
0.00222453
-0.00378405
-0.75375
0.339429
0.414322
0.573084
-0.859676
0.494173
0.365502
0.0866821
-0.0239014
-0.267913
0.498387
-0.230474
-1.21569
0.564543
-0.00173476
0.00173476
-0.696425
0.669482
-0.00867651
0.00409731
0.777466
-2.0312
0.749186
-0.758225
0.00903874
-0.554151
1.62264
-0.607746
0.695433
-0.0876876
0.385435
0.257405
-0.64284
0.828184
0.00244849
-0.00244849
-0.243563
0.778873
-0.535309
-0.733044
-0.466647
0.800536
-0.623626
0.036869
-0.0704964
-0.873404
-0.342291
-1.28246
0.821769
0.535115
-0.612817
-1.03499
0.470132
0.0457037
0.462648
0.878243
-1.34089
-0.829508
1.29216
-1.38366
-0.774667
0.354515
-0.689489
-0.0851777
-0.868436
0.00875999
-0.809514
1.33925
-0.814712
0.184852
0.394294
0.00152261
0.00270301
-0.00422562
-0.128147
0.363672
0.214055
-0.903544
-0.365357
0.15273
0.212627
-1.08118
0.62451
0.124676
-0.63327
0.00278748
-0.00300916
0.000221686
-0.955311
0.0323243
0.0819382
0.0231442
-0.46627
0.649316
-0.183046
-0.343272
1.47709
-1.82037
-1.01452
-0.106031
0.929285
0.524268
-0.0198664
-0.0919001
0.0720337
0.828647
-0.50942
0.362377
-1.6937
1.3986
0.895003
-0.403408
0.210211
0.193197
-0.989744
1.85008
-0.737609
0.536128
0.201481
-0.261695
-0.475915
-0.20703
1.24483
-1.45186
0.00233111
-0.000672706
-0.305015
0.781589
0.0451231
-1.31804
0.198328
-0.519328
-0.00137462
0.00137462
-0.0116026
-0.610187
1.54137
-0.17955
0.611849
0.0687921
0.0374477
-0.0242976
0.0565432
0.240923
0.114688
-0.162485
0.0109108
0.607322
-0.597518
-0.55571
-0.283187
0.901508
-0.418796
0.00247738
-2.88821e-05
0.646903
0.0328428
-0.479929
-0.589859
-0.0337678
-0.900491
0.310633
-0.534989
0.709173
-0.433988
0.548676
-0.717175
-0.265957
0.476169
-1.34627
-1.48969
0.649466
-1.04423
0.0548924
0.00184698
-0.253485
0.831859
-0.578374
0.0406259
-0.100421
0.0598976
0.0405238
-0.0577111
-0.0427102
-1.19
1.05196
0.138039
0.22791
-1.27214
0.828375
-0.361627
0.031515
0.229818
-0.261333
-0.0859797
0.117495
-0.00776455
0.0221302
0.0161178
0.0166525
0.00482573
-0.393573
-0.56909
-0.61918
0.0924636
-1.55586
-0.0239234
-0.0615791
0.770579
-1.53064
0.76006
-0.877791
1.64837
-0.753173
0.212658
0.162525
1.22951
1.55586
0.17056
0.0547085
-0.050142
-0.00456638
-0.00452358
1.64315
-1.02703
0.91506
-0.282079
0.00402304
-0.0959231
-0.0761314
0.0801544
0.873732
0.200614
0.688683
-1.06247
0.643955
-0.373789
-0.937319
0.478259
-0.651356
0.03672
0.815593
0.533514
-0.575049
-0.895891
0.320841
-1.08508
0.537565
-0.0477874
0.119821
0.032367
0.149862
-0.00385731
0.00360621
0.0002511
-0.0023347
-0.144312
-0.572864
-0.390784
0.0184644
1.58826
1.08678
0.00189466
-0.0046962
0.00280154
-0.00364614
0.0055408
0.00958801
-0.00559449
-0.00399352
0.00221652
0.00737148
-0.00353989
0.00653703
-0.00299714
0.00570071
0.000304813
-0.00600553
-0.00107377
0.00948419
-0.00841043
0.00681587
-0.00655422
-0.000261648
-0.00465136
-0.0023327
0.00698406
-0.000412239
-0.00559369
0.00600593
-0.00438689
0.00207913
0.00230776
0.0017894
0.00714067
-0.00893007
-0.00136615
0.0107403
-0.00937414
-0.0103122
0.00367579
0.00663636
-0.00121235
0.00977007
-0.00855772
-0.0154597
0.0152762
0.000183514
-0.00673423
0.00337774
0.00335649
0.0100815
-0.0121394
0.00205785
-0.0173166
0.0120099
0.00530667
-0.00437569
0.00400913
0.000366561
0.00786237
-0.00922852
-0.0183647
0.00109164
0.0172731
-0.0104432
-0.00792151
-0.00701693
0.00294234
0.00407458
0.00030957
-0.0073265
0.00496073
0.00412212
-0.00908285
-0.00762689
0.000635161
0.00699172
-0.0025701
-0.00505679
0.000455612
0.0053833
-0.00583891
0.00951298
-0.0100871
0.000574163
0.00860845
0.000904536
-0.00807621
-0.0035563
0.0116325
-0.00548308
0.00507084
-0.00128538
-0.00481849
0.00610387
0.00281973
0.00426508
-0.0070848
-0.00768744
0.00709644
0.000590997
-0.00284015
-0.00484728
0.00621588
-0.00878598
-0.0102811
0.00190168
0.00837943
-0.00347633
-0.00680477
0.00126114
-0.00575371
0.00449257
0.00459509
-0.000603694
-0.00399139
0.00390606
0.000689026
-0.0176457
0.0304935
-0.00246931
0.00469598
-0.00222667
-0.0056397
-0.000616186
0.00625589
5.45233e-05
-0.00569423
0.00187577
-0.00332555
0.00144978
0.0258528
-0.0404599
0.0146072
0.0265557
-0.00822129
-0.0183344
0.00233068
-0.00879134
0.00646066
0.0111252
-0.000872903
-0.0102523
0.00390694
-0.00272215
-0.00118479
-0.00751582
-0.0027045
0.0102203
-0.0140113
0.00910526
0.00490601
0.00494114
-0.010562
0.0056209
-0.00586556
0.00115035
0.00471521
0.0142688
-0.00377401
-0.0104948
-0.00829263
0.0225614
0.000724151
0.00759716
-0.00832132
0.00307877
0.00775441
-0.0108332
-0.00684008
-0.00218447
0.00902455
0.00575629
-0.0121677
0.00641145
0.00846532
-0.00718859
-0.00127673
0.00292678
-0.00935442
0.00642764
0.0101243
-0.0226456
0.0125213
0.00238508
-0.00666544
0.00428035
-0.00695198
-0.000891522
0.0078435
0.00995399
-0.0055039
-0.0044501
-0.00830612
-0.000429546
0.00873566
-0.00677237
-0.000879516
0.00765188
0.00663798
-0.323252
0.316614
0.190897
-0.184259
0.0103387
0.000101454
-0.0104402
-0.00179623
-0.0080941
0.00989034
0.000847876
-0.00424146
0.00339358
-0.00921734
0.00597584
0.0032415
0.00187104
0.00883496
-0.010706
-0.0113738
-0.00408589
-0.00463151
-0.00674227
0.0112151
0.0153405
0.00838382
-0.00838383
-0.004634
-0.00449082
0.00912483
-0.00950026
-0.00587068
0.0153709
0.0064367
-0.00242292
-0.00401378
0.00751316
-0.00693828
-0.000574886
0.00500305
-0.00554757
0.00792609
-0.00237852
-0.00900668
0.00109877
0.00790791
-0.00396848
-0.0050382
-0.00811857
0.00821169
-0.00821169
-0.00201641
-0.00426087
0.00627728
-0.00804098
0.00762146
0.000419518
-0.00128126
-0.00675972
-0.00395462
0.00672195
-0.00276732
-0.00591565
0.00365859
0.00225706
0.00176494
-0.0076806
-0.00473859
-0.00252223
0.00726082
-0.0107714
0.00479753
0.00597391
-0.00945633
0.00986038
-0.000404046
-0.00533262
-0.00412371
-0.000144408
0.0179996
-0.0178552
-0.0199222
0.0289529
-0.00903077
0.00471347
0.000358843
0.00797429
0.000716527
-0.00869082
0.00984059
0.0066948
-0.0165354
0.0289844
-0.0431269
0.0141425
-0.00898616
0.0104916
-0.00150547
-0.00552861
-0.0107702
0.0162988
0.00848999
-0.00535883
-0.00313117
0.00158903
0.00690096
-0.00431233
-0.00428153
0.00859387
-0.0073223
0.0102491
-0.012378
0.00553789
-0.00453298
0.0107712
-0.00623821
-0.00123054
0.00339876
-0.00216822
0.00421074
-0.0061795
0.00196876
-0.00983379
0.00217238
0.00766141
0.0108895
-0.00355194
-0.00733752
0.00428897
0.00660049
-0.00557931
0.00132762
0.00425168
-0.00492036
0.00497488
-0.00907904
-0.000275379
-0.00600026
0.00325378
0.00488563
-0.00813941
0.0048228
0.0041385
-0.0089613
-0.00458633
0.00997998
-0.00539365
0.00821658
-0.00949783
-0.00883431
0.00776866
0.00106565
-0.00611655
0.00247041
0.00832156
-0.00298471
-0.00533685
0.0108392
-0.0116285
0.00078925
-0.00466433
0.00411288
0.000551442
0.00596815
0.00351455
-0.00948271
-0.0053584
0.0148833
-0.00952485
-0.0159423
0.00549905
-0.00586073
-0.0083469
-0.00736501
0.0157119
0.0135599
-0.0219068
0.0392924
0.00997423
-0.00838408
0.00612009
0.00226398
0.00669775
0.00103827
-0.00773603
0.00798933
0.00504195
-0.0130313
0.0304316
-0.0613175
0.030886
0.0476992
-0.0172676
-0.00629935
0.00617533
0.000124022
-0.0239984
-0.0252438
0.0492422
0.11952
-0.0138671
-0.105653
-0.00695219
0.00800119
-0.001049
0.0290143
-0.0038117
-0.0252026
0.0400681
-0.0110538
-0.00245889
0.00694326
-0.00448437
0.00129882
0.0103333
-0.0116321
-0.00534152
0.000583265
0.00475826
-0.000685577
0.00905582
-0.00837024
-0.00870467
0.0121231
-0.0034184
0.016462
-0.0115181
-0.00494388
-0.000995823
-0.00470852
0.00570434
-0.00172461
-0.00383586
0.00556047
0.00549764
0.00489076
-0.0103884
0.00570128
0.00058207
-0.00628335
0.0120162
-0.00739103
-0.00462513
0.0102084
0.00180777
0.00471458
0.00506662
-0.0097812
0.00824645
-0.00328571
-0.00105256
-0.00635439
0.00740696
0.00220928
-0.0077027
0.00549342
0.0103092
-0.00809266
0.0101129
-0.00743468
-0.00267821
-0.00518393
0.000212427
0.00660431
-0.00358017
-0.00302415
-0.000129917
-0.00918345
0.00560328
-0.00332717
-0.00447374
0.00780091
0.0105596
-0.0123559
-0.00824955
0.00393722
0.0023979
-0.00746656
0.00506865
0.00596491
0.00710632
-0.00472124
-0.0109226
0.00315677
0.00776579
0.006404
-0.00410458
-0.00229942
-0.00292765
-0.000840042
0.00376769
0.000503889
0.00455383
-0.00505772
0.00653519
-0.0060313
-0.000544695
-0.00811429
0.00865898
-0.0801332
-0.192612
0.272745
-0.03641
0.030873
0.00553701
0.00576353
0.000456191
-0.00621972
-0.00262055
-0.00762329
0.00264697
0.00497631
-0.00683171
-0.00678348
0.0136152
-0.00514262
-0.00878222
0.0139248
-0.00479386
0.00940345
-0.00460959
-0.00406639
0.0108155
-0.00674916
0.0056678
-0.00346584
-0.00220196
0.000628854
0.00503894
-0.00225343
-0.00212226
0.00150066
0.0069452
-0.00844586
0.00206933
0.00590771
-0.00797704
0.000347225
-0.00802386
0.00767663
0.00439784
0.0119599
-0.0163577
0.00022784
-0.00767246
0.00744462
-0.00661293
0.00684077
0.00420513
-0.00662726
0.00242213
-0.0057701
0.00697274
-0.00120264
-0.00115303
-0.00461707
0.00654165
0.0046899
-0.0112315
0.413895
-0.220082
-0.0055801
0.0112211
-0.00564098
-0.0119391
0.00386285
-0.010068
0.00706576
-0.00506703
-0.00199873
0.00497247
0.00118803
-0.0061605
0.00731168
-0.00588417
-0.00142751
-0.00120212
-0.00699603
0.00819815
-0.00104552
-0.00745392
0.00849944
0.00290262
-0.00920697
0.00630435
-0.00744425
-0.0071768
0.0146211
0.000269543
0.0069118
-0.00718134
0.000562195
0.00620834
-0.00677053
-0.000825765
0.00881509
-0.010901
0.00357868
-0.00314657
-0.00879929
-0.00746687
0.00662667
0.000840206
-0.00368525
-0.00378162
0.00702309
-0.00688126
-0.000141827
0.00353905
0.00348404
-0.00695422
0.00957055
-0.00261633
-0.00788033
0.000926113
-0.00536125
-0.00434724
0.00970849
0.0053137
-0.0172819
0.0119682
0.0121701
-0.00784239
-0.00432767
0.00738528
0.00478478
-0.041091
-0.0140168
0.0057187
0.00347898
-0.00919769
-0.0108314
0.00700456
0.00382686
0.0035098
0.00340565
-0.00691545
0.016425
-0.00767692
-0.00874805
0.0109047
-0.0150471
0.0041424
-0.00434693
-0.00442041
0.00876734
0.000622855
-0.0096945
0.00907164
-0.00403704
-0.0077136
0.0117506
0.00956335
-0.00696285
-0.00260051
0.00406519
0.00555072
-0.0096159
-0.00234554
-0.00807303
0.0104186
-0.00497485
-0.00485603
0.00983088
0.00273663
0.00512698
-0.00786361
0.00697851
-0.00766759
0.000689089
0.00126679
-0.00976595
0.00849916
-0.0264621
0.0206155
0.00584662
0.00795594
-0.034418
0.0104286
-0.0073488
-0.00307979
-0.00762722
0.0013277
0.00629952
0.00367836
0.00454589
-0.00822425
0.000919202
0.0031796
-0.0040988
0.0579932
0.0241856
-0.0821787
-0.0279188
0.00910552
-0.00848266
0.00498592
0.00164373
-0.00662965
0.000165
0.006029
-0.006194
-0.0220861
0.0150675
0.00701869
-0.0138909
-0.00819526
0.0024013
-0.00761152
0.00521022
-0.0411503
0.000434148
0.00846543
-0.00877031
0.000304877
0.00517422
0.00610907
-0.0112833
0.00709248
-0.00251045
-0.00458203
0.0198619
-0.0107037
0.0110089
0.00650454
-0.0175134
0.000752685
-0.00939984
0.00864716
0.00186366
-0.0130119
0.0111482
0.000157613
-0.0129352
0.0127776
0.00510873
-0.00826399
0.00315526
-0.0103581
0.00350333
0.00685477
-0.00345764
-0.0054461
0.00890374
0.00309593
0.00549726
-0.0085932
0.00713851
-0.00682894
0.00446452
0.0038998
-0.00836433
-0.00948961
0.00446361
0.005026
-0.00178318
-0.00770643
-0.00733109
0.00858833
-0.00125725
0.00851401
-0.000351789
-0.00816222
-0.00168156
-0.00202985
0.00371141
-0.00283296
0.014249
-0.011416
-6.06168e-05
0.0123336
-0.012273
-0.000167192
-0.0104764
0.0106436
0.00772305
-0.0125902
0.00486719
-0.0113732
0.00327912
-0.00844012
-0.0029331
-0.0071329
-0.00500331
0.0121362
0.00352673
-0.00986354
0.00633681
-0.00804351
-0.00148501
0.00952853
-0.00654285
-0.0088161
0.00176861
-0.00600958
0.00424097
-0.00324214
0.00494813
-0.0233538
0.0117862
0.0115677
0.00807136
-0.00130957
-0.00676179
-0.00588139
0.00680748
-0.000926088
0.0149562
-0.00405149
0.00993783
0.0050184
0.0123735
0.00883487
-0.00767525
-0.00115962
0.0020625
-0.00471826
0.0362119
0.0108399
-0.00363483
-0.00720502
0.0081624
-0.00926745
0.00110505
0.00107156
0.00709084
0.00843514
-0.00893306
0.000497923
0.00432467
0.00411046
-0.00324616
-0.016676
-0.0115388
-0.00890756
-0.00776845
0.00802459
-0.00195597
-0.00606862
-0.00665689
0.00613369
0.0005232
0.00237548
0.00160134
-0.00397682
-0.0135254
0.00618272
0.00734263
-0.00608694
-0.00553311
0.01162
-0.0233213
-0.0192381
0.0425594
-0.0104531
0.00618057
0.00427257
-0.00572065
-0.0047325
0.0110543
-0.00822784
-0.00282643
0.00300434
0.00777216
-0.0107765
-0.00866724
0.00759347
0.00215086
-0.00894751
0.00679665
-0.00680386
0.00526263
0.00154123
-0.0018456
0.00344704
-0.00160144
-0.004592
0.0162122
-0.0116202
-0.0247139
0.0201219
0.138501
-0.240753
-0.184751
0.064741
-0.0196503
-0.0450907
-0.0108122
0.00478814
0.00602405
-0.0118211
0.00100891
-0.00430638
-0.00570807
0.0100145
0.0055691
-0.00987548
-0.0124103
0.0216342
-0.00922394
0.0178171
0.0273618
-0.00572762
-0.0110912
-0.0412662
0.0523574
0.0310638
-0.042155
-0.00125024
0.0076596
-0.00451515
0.0253113
-0.0207962
0.0125453
-0.0302897
0.0177445
0.00130315
-0.00856813
0.00726498
0.0183919
-0.00515212
-0.0132398
0.0153333
0.00305862
0.0053842
0.00513745
-0.0105216
-0.00544898
-0.0100457
0.0190037
-0.00895801
0.00356806
-0.00529267
-0.00308883
-0.0384247
-0.0348094
0.0732341
0.0429151
-0.065099
0.0221839
0.00477689
0.00616554
-0.0109424
-0.00281229
0.00758918
7.27778e-05
0.00609276
0.00304659
0.00511696
-0.00816355
-0.00298114
0.00853835
-0.00555721
0.00608682
0.00193777
-0.00394357
0.00966228
-0.00256201
-0.00228804
0.00485004
-0.010644
0.0143632
-0.00371924
-0.00627574
0.0151557
-0.00888001
0.0103009
-0.0014659
0.00674455
0.0111859
-0.00141762
-0.00976824
0.00390209
0.00415989
-0.00806197
-0.0116906
0.00654798
-0.00435333
-0.00684796
0.0112013
0.00920526
-0.00463218
-0.00457308
0.00181423
-0.006594
-0.00420794
0.0108019
-0.00584131
0.0042951
-0.00850305
0.00319063
-0.00921452
0.00602389
-0.00631373
0.00950436
0.00586177
-0.00435179
-0.00150997
-0.0077648
0.00390297
0.00386183
0.00870152
0.00127129
-0.0099728
0.00296791
0.0040766
-0.00704452
0.00473286
0.00566564
0.0085818
-0.0103825
-0.00823051
0.00318181
0.00504871
0.0175012
0.0230975
-0.0405987
0.0371711
-0.0195214
-0.0176496
0.000675095
0.00657573
-0.00725082
-0.00556196
0.00623706
0.00175939
0.00481634
0.00977641
-0.00466768
0.00349603
0.00558254
-0.00907858
-0.000176786
-0.00474357
0.00575609
-0.00155096
-0.00629453
-0.0115719
0.00934
0.00223189
-0.011219
0.0105334
0.00708298
-0.00303939
-0.00404359
0.00180853
0.0117513
0.0119328
0.00560323
0.00614811
0.00681892
-0.0102953
-0.0014792
-0.00896854
0.0104477
0.0133099
0.00177232
-0.0150822
0.0212702
0.0095534
0.0338154
-0.00304885
-0.00553736
0.00858621
-0.00643965
0.0033908
0.00438446
-0.00500065
-0.00888626
-0.0287856
0.0376719
0.000447232
0.00791966
-0.00836689
0.0108715
-0.00869704
-0.00217448
-0.0167469
-0.000468221
0.0172152
-0.044589
0.0207736
0.0238154
0.0356269
-0.0262215
-0.00940542
0.00324092
0.00631531
-0.00955623
0.0132267
-0.0205917
-0.000187231
0.00627405
0.00487441
-0.00506164
0.00419766
0.00207639
0.00428174
0.00520245
-0.00530373
0.00958547
-0.00228762
0.00749007
0.00874971
-0.0226406
-0.00623604
0.00524022
-0.00605893
0.00386857
0.00219036
0.000638818
0.0222162
-0.0254227
0.00320644
-0.00675659
-0.00401485
0.00525828
0.00155759
0.00571389
0.00725887
0.00873507
-0.00658421
-0.00665972
0.00665973
-0.0381102
0.0116567
0.0264535
0.00527371
-0.00703294
0.00175922
0.00704233
-0.00164556
0.00430059
-0.00265503
-0.0019116
0.0019116
0.019142
0.018029
-0.00828962
0.0073102
0.000979419
0.0319543
-0.00105019
0.00668944
0.00436926
-0.0110587
-0.0026082
0.00929764
0.00182897
0.00792255
-0.00975151
0.00677092
-0.00326113
0.00884827
-0.00989379
0.0380075
0.0187376
-0.0567451
-0.00553137
-0.00522425
0.0107556
-0.0135033
-0.00324364
-0.000425573
-0.0130777
0.0141667
-0.0174103
-0.00633961
0.000802249
0.0256185
0.00192772
-0.0275462
0.0101474
0.0154711
-0.0269642
0.0288919
-0.00244332
0.0078227
-0.00537938
0.00286539
0.00540413
-0.00826952
-0.0039826
0.0039826
-0.00448002
0.00728808
-0.00280806
-0.00670678
-0.0342566
0.0170797
0.0171769
-0.0120404
-0.00763418
0.00488666
-0.00488667
-0.00364818
0.00364819
-0.00307107
0.0127987
-0.00972767
-0.00116669
-0.0075027
0.00866939
-0.00867259
0.0063585
0.00231409
0.00105378
-0.00560593
0.00455215
0.00608572
-0.0014364
-0.00464932
0.0071395
-0.0108538
0.00937461
-0.00697479
0.00693309
4.17026e-05
-0.00431125
-0.0021284
0.0064218
-0.0104882
0.00299039
-0.00299039
0.00460957
0.00363687
0.00524839
-0.0120481
0.00360374
0.00844437
-0.014884
-0.000146624
0.0150307
-7.08309e-05
-0.0101164
0.0101873
-0.00698531
-0.00878139
0.0157667
0.00627122
-0.00406195
0.00281242
-0.00651682
0.0037044
0.0260761
-0.000534566
-0.0255416
0.0238415
0.00352033
-0.00741435
0.00832112
-0.000906773
-0.0115611
0.00472941
-0.0137825
0.00222137
0.0133974
-0.00866795
-0.0100788
0.000678952
-0.00670282
-0.00337598
0.000657628
0.00596904
0.0177002
0.0101253
-0.0278255
0.00369951
0.00615953
-0.00985904
0.00735708
-0.0168514
0.00949431
0.00438917
-0.00438918
-0.00936991
0.00258374
0.00678617
0.00335135
-0.00861
0.00525865
0.00290172
-0.00290172
0.00872207
-0.00571773
-0.0123202
0.0101741
0.00214611
0.00290462
-0.00721734
0.00431273
-0.0132971
0.0143887
0.00372711
-0.0071782
0.00345109
0.00638623
-0.00550707
0.00559014
-8.30711e-05
0.00582929
0.000242521
-0.00607182
-0.0209403
0.0240523
-0.00311194
0.0209833
-0.000214695
-0.0207686
0.0101671
0.00510902
0.0103247
0.0124661
-0.00388451
-0.0101268
0.00442679
-0.0083113
0.000196336
-0.0103231
-0.00399779
0.00596297
-0.00196518
0.00394149
0.00245577
-0.00639726
-0.00570584
0.00570585
0.00422279
0.00388515
-0.00810794
0.0020725
-0.0020725
0.00625867
-0.0108908
-0.0082628
0.00807722
0.000185577
-0.265322
0.0601618
0.20516
-0.166151
0.244692
-0.078541
-0.431473
0.304854
0.00979447
-0.00114272
-0.00865174
-0.00661425
0.000836711
0.00577754
-0.00370963
-0.465503
0.321539
0.143964
-0.153101
-0.312401
-0.00102026
0.0112287
-4.21526e-05
-0.0148419
0.0139407
-0.00867463
-0.00526604
0.0138985
-0.00653342
0.0060729
0.000460523
-0.00453877
-0.00702423
0.011563
-0.00714285
0.00609028
-0.00739837
-0.000964895
0.00836326
0.022222
0.00404577
1.59453e-05
-0.0209563
-0.0281103
0.0343012
-0.00619086
0.0119578
-0.00696505
-0.00306015
0.00306015
0.00186495
0.00628049
-0.00814544
-0.00580272
-0.00256271
0.00836543
-0.00393777
0.00371777
0.00272022
0.00437226
0.00666171
-0.0111324
0.0133591
-0.00222664
-0.000197209
0.0187852
-0.018588
0.0213559
-0.0215531
-0.000458705
-0.00515613
0.00561483
-0.03441
0.0083786
0.0260314
-0.0289499
-0.00546009
0.0352126
-0.026834
0.00444872
0.00260609
-0.00705481
0.00577634
0.00681683
-0.0129536
-0.000265656
0.0132193
-0.010371
-0.00258257
-0.00278743
0.0551391
-0.0523516
-0.0149488
-0.0231615
-0.00496198
-0.00170088
0.0012319
-0.00528103
0.00404913
-0.000339094
-0.00603868
0.00637777
-0.00644734
0.00610825
0.00300975
0.0136299
-0.0166396
-0.0141948
-0.00358419
0.0177789
-0.011185
-0.00621697
0.00762277
-0.0014058
-0.00517869
0.00675462
-0.000925329
-0.033303
0.000444058
0.0328589
-0.014497
-0.018806
0.0352711
-0.034827
0.0217404
-0.0190351
-0.00521424
-0.00120731
0.0012073
0.00444807
0.00114879
-0.00129632
0.00574439
-0.014348
-0.0159418
-0.0188631
0.00148668
-0.00148668
0.0034783
-0.00347831
-0.00201312
0.00201312
0.00597884
-0.00118131
0.00124025
-0.0235839
0.00593821
-0.0113952