/*--------------------------------*- C++ -*----------------------------------*\
  =========                 |
  \\      /  F ield         | OpenFOAM: The Open Source CFD Toolbox
   \\    /   O peration     | Website:  https://openfoam.org
    \\  /    A nd           | Version:  6
     \\/     M anipulation  |
\*---------------------------------------------------------------------------*/
FoamFile
{
    version     2.0;
    format      ascii;
    class       volVectorField;
    location    "1500";
    object      U;
}
// * * * * * * * * * * * * * * * * * * * * * * * * * * * * * * * * * * * * * //

dimensions      [0 1 -1 0 0 0 0];

internalField   nonuniform List<vector> 
29884
(
(7.47764 0.058948 -1.04429e-16)
(5.323 0.0253551 9.00142e-17)
(5.41212 -0.115443 4.80314e-17)
(7.11051 -0.0759768 7.9441e-19)
(7.21647 0.103649 -2.87808e-17)
(5.74369 0.155783 6.86127e-17)
(7.88629 -0.117909 -3.46505e-19)
(7.38718 -0.00145986 4.22801e-17)
(4.69231 0.121466 2.52154e-17)
(7.13536 0.017822 7.22111e-17)
(7.44374 0.00878491 -3.17702e-17)
(7.20165 0.195516 1.65794e-17)
(8.07921 -0.13214 -2.61091e-17)
(7.15944 -0.112833 2.43837e-17)
(7.18181 0.0982155 -3.25742e-17)
(4.43133 -0.0562989 8.44084e-17)
(8.2235 0.0497909 -3.52611e-17)
(6.66519 0.195722 -5.93646e-17)
(6.51584 0.162989 0)
(4.17511 -0.00374009 -1.64922e-16)
(7.79139 0.209844 1.44814e-16)
(4.94066 -0.0377968 0)
(8.00611 -0.0624319 -3.90805e-18)
(7.11443 -0.021637 0)
(7.0708 -0.0131675 0)
(7.59566 0.0435779 -2.55295e-17)
(7.84554 -0.0109416 0)
(8.0171 -0.0449971 8.4151e-17)
(5.16151 -0.024921 8.43398e-17)
(5.16014 0.113249 7.45976e-18)
(5.39905 -0.00800321 -1.41015e-17)
(4.8125 0.0893069 4.91342e-16)
(7.99076 0.0356448 -2.48194e-17)
(7.44247 -0.0308087 0)
(7.27742 -0.0590826 -7.63917e-17)
(7.50834 -0.105117 6.08378e-17)
(5.01376 -0.0351188 8.12792e-17)
(7.54843 0.13582 9.69542e-18)
(5.35304 0.146865 -7.73586e-17)
(7.77546 -0.151508 -3.73307e-17)
(5.02205 -0.0503035 0)
(7.05709 0.0710477 1.54113e-17)
(7.60353 0.195516 -4.71328e-17)
(7.23306 0.282817 -3.10028e-16)
(6.97391 -0.0160764 2.11467e-17)
(7.57338 -0.153035 -2.32877e-17)
(8.02262 -0.207468 0)
(7.67548 -0.115086 -6.62605e-18)
(4.80697 0.034514 -9.75987e-18)
(8.36083 0.0913334 0)
(7.37429 0.12526 0)
(7.18439 -0.0740876 4.51751e-18)
(4.71452 -0.151952 3.67057e-17)
(8.40984 0.0279429 1.0229e-16)
(7.19932 -0.0624813 -8.1288e-17)
(7.08619 -0.137761 6.1914e-17)
(4.41039 -0.0181581 1.03366e-17)
(7.98004 -0.0547109 0)
(6.66252 0.0508388 6.39267e-17)
(6.8956 -0.142317 -1.01908e-16)
(7.76361 0.16022 -1.82476e-17)
(7.81249 -0.00971563 2.43295e-17)
(4.71675 -0.100605 0)
(8.13779 0.0523573 -3.82161e-17)
(7.12381 -0.069092 2.85093e-17)
(7.0097 0.0799905 -6.31998e-18)
(7.45259 -0.0426396 8.95223e-18)
(7.82765 -0.115797 5.96476e-17)
(7.40673 -0.094413 -4.01063e-17)
(7.332 0.0675157 5.46139e-17)
(7.24749 0.196412 4.06791e-17)
(7.67252 0.066021 -1.3311e-17)
(7.51796 0.101949 0)
(5.63189 -0.138855 0)
(7.30169 -0.105151 -4.99606e-17)
(6.91004 -0.0927081 -1.77891e-17)
(8.13294 0.105329 0)
(7.87757 -0.123305 0)
(8.08407 -0.116856 0)
(5.09507 0.0360055 0)
(7.66961 -0.0768757 5.1449e-17)
(5.23364 -0.0517811 0)
(7.11583 -0.13967 0)
(7.01538 0.0939525 2.70788e-17)
(6.59799 -0.0554574 -1.89229e-17)
(4.53402 -0.493953 -9.10331e-18)
(7.35674 -0.000115808 0)
(7.60173 -0.0316175 0)
(7.25161 -0.108762 4.48972e-18)
(3.67907 -0.833455 1.83213e-17)
(7.1882 -0.198086 0)
(7.88664 -0.245582 -1.92802e-17)
(4.55487 -0.0864281 -5.199e-17)
(3.34895 -0.705484 0)
(7.12179 0.126287 -4.26937e-17)
(1.65304 -0.367507 0)
(6.99611 0.0139739 -7.13867e-17)
(7.00704 0.0129012 9.44668e-17)
(7.47416 0.0550597 1.04413e-17)
(3.39617 -0.539645 0)
(7.01165 0.0371615 4.75821e-17)
(6.94225 0.0734795 1.07114e-16)
(7.65649 0.0145724 0)
(7.75098 0.0185948 -2.81527e-18)
(7.35556 -0.116556 -4.80534e-18)
(8.12163 -0.117511 0)
(3.82552 -0.628964 1.4904e-17)
(3.70823 0.0539181 -3.72089e-17)
(7.12136 0.133303 -4.85621e-17)
(6.96993 -0.32683 0)
(7.39963 -0.209688 0)
(1.51522 -0.214169 5.3827e-17)
(7.24752 -0.0795424 3.05249e-18)
(7.1456 -0.116889 0)
(7.30225 -0.119186 -2.51079e-18)
(6.97362 0.109941 -2.72095e-17)
(7.16204 0.115483 0)
(7.12618 -0.224122 0)
(6.76245 -0.0745365 0)
(6.64309 -0.311413 4.13785e-17)
(7.00361 0.00601177 0)
(6.8531 -0.300645 2.66093e-17)
(7.31924 -0.157035 4.13227e-17)
(6.78401 0.195721 0)
(7.03549 -0.0247508 1.28516e-17)
(7.04831 -0.191345 -6.1554e-17)
(7.80374 -0.268753 4.71122e-18)
(7.95428 -0.0382546 1.54938e-17)
(6.8667 -0.220913 -4.54147e-18)
(6.98701 0.137747 0)
(6.77117 0.167711 1.29697e-17)
(6.94789 0.120309 -1.46238e-17)
(6.96341 -0.103774 4.06482e-17)
(8.13175 -0.116904 0)
(6.88976 -0.0874515 0)
(7.46583 -0.0886141 0)
(7.64941 0.236381 0)
(7.34288 -0.109846 6.53128e-18)
(7.53118 -0.143893 -1.61365e-17)
(7.53123 -0.130097 3.33343e-17)
(7.39098 -0.114879 0)
(7.2806 -0.015194 2.49083e-17)
(7.69767 0.142214 -1.82931e-17)
(7.73817 -0.228584 -9.37836e-18)
(7.98075 -0.184823 -1.02402e-17)
(8.0059 -0.210303 1.01127e-18)
(7.75503 -0.177603 1.90154e-17)
(7.4898 0.177171 5.40621e-17)
(7.8102 0.118029 -4.54529e-17)
(7.74828 0.207461 4.95956e-17)
(7.63926 0.125468 0)
(4.30821 -0.108963 -2.39361e-17)
(3.94524 0.0282805 0)
(7.90392 -0.143891 -1.37485e-17)
(7.82209 -0.220695 2.33906e-17)
(7.88587 -0.163934 0)
(7.92774 -0.185713 -7.22022e-18)
(7.81522 -0.205458 0)
(7.86645 -0.120779 0)
(7.90164 -0.177463 0)
(7.86104 -0.150053 -2.36207e-17)
(7.03874 0.0278045 3.45879e-17)
(6.95592 -0.0465905 -3.50814e-17)
(7.54672 0.191115 -8.74908e-17)
(1.10927 -0.0673546 -1.1571e-16)
(1.05806 -0.00908458 1.14555e-20)
(4.91781 -0.075221 0)
(4.7248 -0.00675936 0)
(7.00799 0.0425985 -3.99257e-17)
(7.9561 0.195105 5.29863e-17)
(7.3571 0.0478217 -1.5806e-16)
(6.98058 0.104461 0)
(6.97357 0.0753727 0)
(6.87477 -0.0643396 -1.95283e-17)
(7.02483 -0.0630411 0)
(7.01934 -0.178822 7.80996e-18)
(6.82341 -0.259619 -6.91142e-17)
(5.16573 -0.0323529 7.54011e-17)
(7.07277 0.139176 -3.75945e-17)
(7.25111 -0.196245 -7.14146e-18)
(6.99092 -0.280045 -1.57316e-17)
(6.31553 -0.354896 -3.19571e-18)
(6.31267 -0.263851 3.96752e-17)
(6.43054 -0.199979 7.52219e-18)
(7.16685 -0.105397 9.25949e-18)
(7.27136 -0.13014 0)
(7.0652 -0.0226939 -5.62132e-17)
(6.98549 -0.000112557 3.63178e-17)
(7.29874 -0.238069 -4.19086e-18)
(6.98133 0.110249 3.02415e-17)
(7.37419 -0.171724 0)
(6.56003 -0.0697015 2.58272e-17)
(6.42551 -0.120234 -7.16346e-18)
(7.26101 0.159557 8.50782e-18)
(7.36215 0.127688 -3.33858e-18)
(7.03934 0.155042 0)
(6.84639 0.181665 0)
(7.37516 0.0545233 2.44049e-17)
(7.61659 -0.0177879 -7.27515e-18)
(7.46869 -0.129199 0)
(6.76981 0.0298949 0)
(7.59681 -0.0318824 0)
(7.53123 0.0593551 3.45084e-17)
(7.16892 -0.0111439 -3.46539e-17)
(7.37106 0.0701947 -9.82337e-17)
(6.56828 -0.288202 0)
(7.41236 -0.073457 0)
(7.19021 -0.108894 0)
(7.32942 -0.0419109 0)
(7.85081 -0.119292 0)
(7.69699 -0.119105 0)
(7.87922 0.0654988 0)
(8.08334 -0.0803645 0)
(4.75439 -0.0767618 0)
(7.05683 -0.0963339 0)
(4.116 0.957587 -3.15463e-19)
(6.32135 2.48388 -5.27874e-19)
(3.86616 -0.0587711 1.69292e-18)
(6.68587 2.53408 0)
(2.79555 -1.55813 -1.66675e-20)
(2.71661 -1.53255 1.42215e-17)
(7.34503 -4.25178 7.42661e-18)
(6.79278 0.318226 0)
(6.75059 2.2032 0)
(4.18793 -0.879476 -2.09201e-17)
(2.65981 -1.60522 -1.51766e-20)
(3.91589 -0.797591 2.84423e-18)
(3.05376 -0.570083 0)
(2.50523 -5.37923 5.9618e-18)
(7.69368 -1.41571 0)
(5.07011 -4.31199 -1.01684e-19)
(3.83012 -0.819538 3.1889e-18)
(4.15501 -0.203086 5.12424e-21)
(6.48314 -4.21874 -2.66616e-18)
(6.56133 -4.2083 -2.40679e-18)
(4.1479 0.018868 5.79866e-19)
(4.09944 0.042425 -7.16038e-19)
(6.72817 0.235342 -8.13633e-17)
(3.80128 -0.098919 0)
(5.67486 -3.92502 -2.81508e-18)
(5.98954 -3.83282 0)
(1.67389 -0.911891 0)
(4.05333 0.698625 -1.4658e-18)
(6.11224 -4.2729 4.60836e-18)
(6.44973 -3.49623 -2.18424e-18)
(6.45542 1.84552 0)
(3.87033 -1.52817 2.82899e-18)
(3.84872 -0.513341 0)
(5.77314 -1.29255 3.71055e-18)
(6.98979 -2.32774 -1.48645e-17)
(6.65771 -3.68141 -4.56709e-18)
(6.42175 2.86273 1.52549e-20)
(6.39282 2.25452 1.70582e-18)
(6.37172 2.34606 -2.17272e-18)
(2.63528 -1.1992 0)
(2.68823 -1.40559 7.46434e-20)
(2.96178 -1.51309 -1.83376e-17)
(2.86422 -1.46137 -2.55845e-20)
(6.26686 -2.00827 -7.87063e-18)
(5.83846 -1.82908 6.27935e-18)
(6.76992 -1.93735 0)
(6.24253 2.44619 2.34943e-18)
(5.89387 -4.36915 -2.05596e-18)
(1.76905 0.751891 -5.95072e-17)
(6.17993 2.85446 0)
(3.68504 -1.36081 0)
(7.37765 -3.68746 1.6127e-17)
(6.54895 1.95905 2.12176e-18)
(6.59888 2.00524 4.93327e-19)
(3.68263 -1.27096 0)
(6.5282 2.47572 -5.45505e-20)
(6.50051 2.49071 7.45077e-20)
(3.00191 -1.42523 9.25473e-18)
(3.5565 -2.00237 4.44544e-19)
(3.44945 -2.18488 3.6244e-18)
(3.94793 -1.08278 4.24934e-17)
(3.73457 -1.04576 0)
(3.07361 -0.70892 0)
(3.18426 -0.778115 5.07088e-19)
(5.93069 -4.11308 2.13267e-18)
(3.98089 -0.276424 0)
(4.07796 -0.705499 -6.93031e-19)
(6.87427 -0.413869 2.06341e-17)
(6.47333 2.47599 0)
(6.58014 0.198664 5.53177e-17)
(6.36649 2.13842 0)
(6.41045 2.18556 0)
(6.32991 -4.63324 0)
(0.958141 -0.474725 8.42383e-17)
(6.875 0.311427 -7.67988e-17)
(2.90475 -0.392654 -9.80057e-18)
(4.10509 -0.41057 2.39139e-18)
(4.14202 -0.271756 -1.13359e-18)
(5.90947 -4.23582 -1.27676e-18)
(6.51403 -4.61648 -1.07275e-18)
(6.52134 -4.575 -3.37181e-18)
(6.28114 2.35064 3.43677e-18)
(4.09654 -0.483824 -3.85503e-18)
(4.08046 -0.628283 1.44909e-18)
(6.15407 -4.13423 -2.13069e-18)
(6.78274 -3.52216 0)
(3.92355 -0.978056 0)
(3.97321 -0.920828 0)
(3.92569 -1.06509 0)
(3.10857 0.45384 -1.73539e-17)
(3.81634 -1.75102 9.08602e-18)
(4.18503 -1.33835 0)
(6.12942 0.121702 -1.66815e-17)
(6.33696 2.33633 -5.53001e-19)
(6.30608 2.27307 -1.97976e-18)
(6.34808 2.27744 -2.22803e-18)
(6.29738 2.33135 -4.36635e-18)
(2.94839 -1.6616 -2.06026e-17)
(5.71317 -4.23229 8.67396e-19)
(5.77549 -4.27363 -1.8728e-18)
(6.56398 -4.56272 5.11247e-18)
(6.61966 -3.90608 0)
(3.99562 -0.642326 2.64469e-18)
(7.43692 -3.33488 -4.97376e-18)
(7.41072 -3.52236 -1.07502e-18)
(7.21519 -2.9613 4.09212e-18)
(3.36667 0.129076 0)
(3.22793 0.366416 -1.72562e-17)
(3.21035 0.159486 0)
(6.64283 -4.64872 -1.89935e-18)
(6.49377 2.41664 8.0647e-20)
(3.05059 -1.93008 -1.37522e-17)
(2.97105 -1.73611 1.82623e-17)
(3.08378 -1.74917 2.21097e-17)
(2.90748 -1.92272 6.44566e-18)
(6.42712 2.40238 1.01187e-18)
(6.47469 2.37764 -1.3816e-18)
(6.45562 2.35713 3.04317e-19)
(6.45542 2.41351 3.58734e-19)
(4.04939 0.76772 2.84101e-18)
(4.01831 0.916998 -1.62256e-18)
(6.81294 0.283904 -2.55993e-19)
(6.64301 -0.855768 -3.29058e-17)
(2.87479 -0.727772 -1.99367e-17)
(2.85248 -0.966503 0)
(7.24028 -3.24447 -5.93517e-18)
(7.51294 -0.458101 -3.96202e-17)
(2.83762 -1.34311 5.78751e-18)
(5.81895 -0.848376 -2.06676e-18)
(7.11076 -0.241412 9.42549e-18)
(2.84324 -0.582868 0)
(2.94261 -0.569151 1.88573e-17)
(2.90849 -0.497712 6.70962e-20)
(2.8855 -0.62279 -5.43745e-18)
(3.58688 -0.0682363 3.17861e-19)
(3.58408 -0.246471 0)
(3.37642 -0.00408912 -6.78655e-18)
(6.53659 2.45037 0)
(6.5204 2.42899 0)
(6.56739 2.43414 1.29461e-19)
(3.28757 -0.438031 0)
(3.12232 -0.450654 3.26563e-17)
(3.07082 -0.10185 0)
(3.08778 -0.324258 -3.53592e-17)
(3.1472 -0.174141 0)
(3.39909 0.597544 -6.42175e-18)
(3.63936 0.288158 3.72893e-17)
(6.19927 0.171538 -6.01257e-17)
(6.75718 2.10957 -6.7994e-19)
(6.37137 2.37462 7.92281e-19)
(6.40334 2.39891 -1.62362e-18)
(6.6935 -0.616685 6.1655e-18)
(6.74437 -0.396853 0)
(1.14082 0.419074 0)
(2.67466 -0.5419 -8.24221e-18)
(7.05823 -3.35878 0)
(6.77382 -3.5534 -1.38285e-17)
(7.10688 -0.259461 -2.15507e-17)
(7.13193 -0.244492 1.6837e-17)
(7.06467 -0.295216 0)
(6.25339 2.49676 1.19465e-18)
(6.30341 2.56128 5.76273e-19)
(6.90082 -3.94761 4.73749e-19)
(6.54101 -4.63473 0)
(6.60414 -4.64345 2.6213e-18)
(6.53248 -4.67626 2.73202e-18)
(5.24892 0.241923 9.98877e-17)
(6.50669 -0.480735 -5.52419e-17)
(6.52429 -0.599597 0)
(6.59513 -0.408148 -2.42052e-17)
(6.26112 -3.99823 0)
(6.42817 -4.02088 5.46224e-18)
(6.33933 -4.09716 -9.77597e-21)
(6.3116 -3.97492 -4.74717e-18)
(4.22163 -0.346488 0)
(3.97518 -0.115026 -2.12127e-18)
(3.89858 -0.319752 -3.25856e-17)
(4.23456 -0.202496 0)
(6.52826 -4.07027 2.55274e-18)
(6.58423 -4.15834 2.55658e-19)
(6.62332 -4.01125 -1.73389e-18)
(4.08763 0.456873 2.4226e-18)
(4.02791 0.346053 0)
(6.36517 -3.59476 0)
(6.14592 -3.76219 -4.50606e-18)
(3.93429 0.428574 -5.43002e-19)
(3.63859 0.794892 -8.26798e-18)
(4.29489 -0.534539 -5.31723e-19)
(4.04524 -0.645008 1.79811e-17)
(4.19521 -0.666239 -1.14575e-17)
(4.21685 -0.43301 1.03775e-17)
(3.18084 -2.79251 -2.45761e-18)
(6.6792 0.256757 9.90898e-18)
(6.66729 0.228001 0)
(6.88115 0.142798 0)
(6.81484 0.175972 5.5722e-18)
(4.03657 1.18221 0)
(4.08289 1.04411 0)
(2.88569 -0.181174 -2.34258e-17)
(2.87555 -0.0636057 1.58528e-20)
(2.8023 -0.208129 1.07832e-17)
(3.37798 -1.25003 0)
(6.7368 -1.81022 0)
(3.91875 1.64095 -9.24106e-20)
(4.03799 1.50532 -1.92176e-18)
(3.98766 0.994339 -1.55042e-18)
(5.56551 -3.98749 0)
(3.15185 -1.18582 9.11167e-18)
(3.23175 -1.05131 1.79428e-17)
(3.0181 -1.14512 0)
(3.55635 -0.504456 0)
(3.80701 -0.332577 4.2183e-17)
(3.64001 -0.29808 -5.18732e-18)
(3.78474 -0.498936 -3.07112e-17)
(3.10714 -1.45373 1.79698e-17)
(3.27006 -1.33584 0)
(3.17313 -1.28684 -1.88801e-17)
(3.23602 -1.46517 0)
(7.61488 -0.403634 1.41685e-17)
(3.68368 -1.40879 0)
(3.47973 -1.27621 0)
(3.65191 -1.21158 0)
(3.49114 -1.43117 1.50199e-17)
(6.99525 -2.61268 0)
(7.20447 -2.45768 -8.19671e-18)
(3.82959 -1.19075 -8.31849e-19)
(3.90913 -1.11107 0)
(3.89715 -1.193 7.49387e-19)
(3.84768 -1.11896 0)
(6.90593 0.0807366 3.51037e-19)
(6.87021 0.0157939 0)
(6.5234 0.318853 3.25811e-17)
(6.84106 -3.8819 2.25706e-19)
(6.72848 -3.74434 4.19556e-18)
(6.88182 -3.78649 3.72055e-18)
(6.69573 -3.86205 4.59111e-18)
(6.8795 2.07981 0)
(7.25234 0.444956 -2.80471e-17)
(4.52141 -1.53787 1.86346e-17)
(4.60879 -1.24357 -3.43709e-17)
(6.99596 -0.342891 1.70399e-17)
(7.09088 -0.271978 -1.15551e-18)
(7.01555 -0.316298 -1.11897e-17)
(6.86395 1.37065 2.12466e-18)
(4.04123 -0.199542 -3.3672e-17)
(2.0897 -0.19378 0)
(6.09211 -0.468153 -2.32668e-17)
(6.20976 -0.455452 5.34547e-18)
(6.42365 2.93345 -9.16477e-20)
(6.30518 -4.23 0)
(6.33842 -4.15071 -2.43368e-20)
(6.40482 -4.18135 3.13553e-18)
(6.26977 -4.16524 2.82447e-18)
(4.28669 -1.22467 0)
(4.50484 -0.910825 -5.93104e-18)
(4.31199 -0.961743 0)
(4.51163 -1.15456 3.77866e-17)
(6.90486 0.113735 0)
(6.91437 0.0773293 1.31923e-17)
(6.90295 0.0952077 0)
(7.00338 0.0733382 5.28799e-19)
(7.00015 0.0924928 -1.61338e-17)
(7.5648 -0.180833 0)
(7.22984 -0.222557 -4.83095e-18)
(7.36572 -0.221274 4.9803e-18)
(7.40649 -0.178927 0)
(6.64118 0.185383 0)
(6.75368 0.0935054 -6.9381e-17)
(6.72093 0.16478 4.96883e-18)
(6.65601 0.135396 4.28318e-17)
(6.08506 -4.23305 -4.85423e-18)
(6.01053 -4.14418 0)
(5.98499 -4.22578 0)
(6.10871 -4.17552 0)
(6.28089 2.43272 1.20913e-18)
(6.31394 2.45759 -6.70805e-19)
(6.30171 2.39343 1.00929e-18)
(2.84925 -1.0481 0)
(2.75851 -1.15305 7.03915e-18)
(2.76579 -1.07199 -7.42001e-18)
(2.85478 -1.1479 -5.69256e-18)
(6.51682 0.213027 -9.23741e-18)
(6.39788 0.243742 3.67414e-18)
(6.46515 0.186911 9.22404e-17)
(2.31586 -0.305101 -2.13246e-17)
(2.10234 -0.017098 2.36188e-17)
(6.94255 0.148941 0)
(2.144 -0.196806 -9.82291e-19)
(5.40092 0.117224 -1.1974e-16)
(6.99572 0.0210259 4.54028e-17)
(7.01993 0.0764844 1.91305e-17)
(2.29322 -1.13944 -6.73254e-18)
(2.53623 -1.19661 1.23846e-17)
(7.01152 0.117592 5.65444e-17)
(7.01032 0.085086 6.1727e-17)
(7.00901 0.0922778 -2.03356e-17)
(6.95832 0.205159 8.18628e-17)
(7.15075 -2.28378 1.55109e-17)
(7.00334 0.244391 0)
(6.04901 -0.0857233 1.5292e-17)
(1.575 -0.264727 -2.91497e-20)
(2.11832 -0.322554 0)
(6.77843 0.236179 -5.65623e-17)
(3.7435 -1.21616 0)
(7.43612 0.0161876 -4.66151e-17)
(6.99969 0.144555 4.2552e-17)
(6.79982 -0.0137734 0)
(7.86579 -0.417173 0)
(7.33918 0.338237 0)
(7.32459 0.411595 3.14568e-17)
(1.70492 0.504956 1.993e-17)
(7.73153 -0.291312 7.68443e-17)
(7.66965 -0.35403 0)
(7.13887 0.176998 -5.42637e-18)
(6.85203 0.281194 0)
(7.31702 -2.49705 8.39159e-18)
(6.08717 -0.0729835 1.33746e-17)
(7.17264 -0.167528 -1.26639e-18)
(7.11362 -0.215997 3.34223e-18)
(7.15544 -0.194203 4.6468e-19)
(7.57107 -0.23083 0)
(6.65354 -0.442243 -6.11292e-18)
(6.631 -0.555686 8.43581e-18)
(8.09587 -0.224791 3.6555e-17)
(8.14602 -0.138251 -3.71677e-17)
(8.06259 -0.132501 8.09091e-17)
(6.95809 -0.125123 2.08028e-18)
(6.86235 -0.102715 2.23139e-18)
(6.97553 0.181854 2.41932e-17)
(6.97054 0.156124 2.37326e-17)
(7.00055 0.0234105 2.54005e-17)
(7.00303 0.0371326 5.54762e-17)
(6.41902 -0.366195 0)
(3.29444 0.5242 0)
(6.79612 -0.448472 0)
(6.77365 -0.567328 0)
(7.14734 -0.16769 4.99234e-19)
(6.98377 0.258741 -2.48076e-17)
(6.30219 -0.0858736 -8.17107e-18)
(7.0035 0.172313 -4.36046e-17)
(6.99333 0.212772 0)
(6.99242 0.194219 9.42254e-19)
(2.11366 0.319692 0)
(6.93658 0.115958 -1.29116e-17)
(6.94634 0.104665 1.27532e-17)
(7.39236 -3.31744 7.35714e-18)
(7.30824 -2.98608 0)
(7.33972 -2.8687 3.03985e-18)
(7.39977 -0.374841 -6.76988e-17)
(7.1678 -0.0550247 0)
(8.27718 -0.0262932 0)
(6.61333 -0.061157 -2.55252e-18)
(6.56901 -0.0544026 -1.87608e-17)
(6.86549 -0.0586935 2.64064e-17)
(4.6407 -0.256569 6.35352e-17)
(4.85273 -0.254502 0)
(7.50269 -0.396007 -7.81952e-17)
(7.4461 -0.368407 6.14791e-17)
(8.06836 0.0353015 -3.42922e-17)
(8.16797 -0.119324 0)
(6.02014 -0.154995 0)
(7.06803 -0.00448544 0)
(7.18025 0.390651 1.06457e-17)
(7.1586 0.340604 0)
(8.06872 -0.138335 0)
(8.2737 -0.105028 -2.2366e-17)
(1.74001 0.557498 0)
(7.11588 -0.247901 -9.07248e-19)
(7.25316 0.00878715 0)
(4.6133 -0.735215 -3.06284e-17)
(7.22293 0.123109 2.96684e-19)
(7.23271 0.0811067 4.97278e-18)
(1.02808 -0.0870163 -8.00706e-17)
(3.72163 0.435843 1.52736e-17)
(3.5694 0.619549 -9.5335e-18)
(6.79793 0.213786 4.99435e-17)
(6.9974 0.0542167 -2.37001e-17)
(6.99262 0.0728135 -2.49698e-17)
(5.29538 -0.986035 -3.17727e-17)
(6.49576 2.02488 -1.9146e-18)
(6.1538 0.0122699 -3.483e-17)
(6.02802 -0.0407167 0)
(2.71758 -1.21909 1.23927e-17)
(2.74515 -1.31689 -1.25589e-17)
(6.66039 0.0822308 -4.3233e-19)
(6.55146 0.00138943 7.33171e-17)
(6.65077 0.0148973 0)
(6.99968 0.0939922 5.128e-17)
(7.00293 0.126373 1.97124e-18)
(2.50757 0.659229 0)
(6.96567 0.249675 -5.2021e-17)
(6.60767 0.243933 -5.40103e-17)
(6.57573 0.315356 -3.21854e-17)
(6.86561 0.23504 9.66936e-17)
(6.90388 0.235846 -6.96127e-17)
(6.92079 0.19969 -2.76978e-17)
(7.30018 0.0560273 -5.41331e-17)
(6.27093 -0.0148403 2.37232e-17)
(6.38709 0.0460795 -5.84589e-17)
(6.16949 -0.17573 -1.35248e-17)
(6.2844 -0.0947817 -8.28087e-17)
(7.51933 0.0101463 0)
(7.66919 0.0761574 -3.02645e-18)
(7.17705 -0.14245 -2.1033e-17)
(7.87457 -0.00383111 5.4083e-17)
(6.59021 2.09135 1.20355e-18)
(6.98111 0.137823 3.36951e-18)
(7.04712 -0.317507 0)
(7.08562 -0.26832 6.09818e-18)
(4.29278 -0.428334 0)
(4.59302 -0.462069 7.02899e-17)
(7.46856 0.186882 -5.20268e-17)
(7.82327 0.15601 -2.59607e-17)
(7.52386 0.117189 -9.45731e-18)
(7.43806 0.139491 6.13595e-18)
(5.66241 -0.117947 0)
(5.46759 -0.152326 0)
(3.4545 -1.52904 -2.08579e-17)
(3.25524 -1.54427 0)
(3.17808 -1.71632 -1.76942e-17)
(2.82203 -1.68277 -1.55036e-17)
(7.01671 0.0540152 -7.37906e-18)
(6.7326 0.203265 0)
(6.81255 0.190971 0)
(7.52263 0.0274156 0)
(7.85752 0.0341659 -6.37053e-17)
(4.05864 0.228047 -2.83182e-17)
(4.25284 0.183237 2.39256e-17)
(8.34511 0.0811077 -1.51047e-17)
(8.2134 0.144323 -1.89977e-16)
(8.07067 0.0430321 -7.13959e-17)
(7.1442 0.0790207 0)
(7.70572 0.235985 0)
(7.03277 0.0814648 0)
(7.41884 -0.0499588 0)
(7.02413 0.186566 -4.69515e-16)
(4.90649 0.0318853 5.29077e-16)
(7.45801 0.176208 8.75736e-17)
(7.34746 -3.98476 0)
(7.41165 -3.82434 0)
(6.98833 0.0254552 -2.45856e-17)
(6.95218 0.0473712 -5.78899e-17)
(7.02185 0.0421093 1.90905e-17)
(6.93699 0.061409 8.42407e-17)
(7.90252 -0.259119 6.22935e-17)
(5.01126 -0.0330249 -4.46626e-17)
(5.17718 -0.0961347 -5.71449e-17)
(5.34386 -0.0062616 8.9597e-17)
(6.89434 0.123776 0)
(6.88242 0.147203 0)
(6.85308 0.182197 0)
(6.87431 0.173621 -2.85863e-17)
(6.83309 0.21522 0)
(7.00135 0.062684 3.80324e-17)
(7.31151 -0.0722192 5.56595e-17)
(7.02379 -0.125589 -4.73882e-17)
(7.56821 -0.365679 1.05609e-16)
(7.6612 -0.299585 -7.05921e-17)
(7.64031 -0.278601 -6.51423e-17)
(7.61801 -0.262028 0)
(7.4485 -0.277288 2.4676e-17)
(7.52062 -0.302468 -2.46045e-17)
(4.7707 -0.0791394 -1.95615e-17)
(6.90833 -0.0364725 -6.96719e-18)
(7.82075 -0.230465 2.27182e-17)
(4.99432 -0.406824 0)
(5.16708 -0.350544 -2.54236e-17)
(5.36972 -0.35461 -4.38713e-17)
(3.2398 0.468398 8.9362e-18)
(3.26478 0.528114 7.87195e-18)
(6.39532 0.105315 2.87585e-17)
(6.30381 0.135449 0)
(3.45676 -0.87416 -3.16288e-18)
(3.37329 -1.04398 0)
(7.69693 -0.100006 -1.53835e-17)
(7.85141 0.0309943 0)
(7.77791 0.110532 2.95671e-18)
(3.7975 0.891958 3.88204e-18)
(3.75321 0.883156 3.64738e-20)
(5.10916 -3.19721 4.74056e-19)
(5.12402 -3.28121 -4.3385e-19)
(2.62586 -0.909263 0)
(4.07437 1.90858 -1.16837e-18)
(7.94931 0.180608 -6.9856e-20)
(5.93288 1.05943 0)
(6.53551 0.948686 8.15301e-20)
(6.22457 0.883473 -2.52708e-19)
(2.51596 0.437411 0)
(5.97943 -2.2724 -3.63978e-19)
(9.49051 1.1181 -1.03866e-18)
(8.02277 0.420241 2.93879e-19)
(9.00971 -0.316025 2.35064e-18)
(6.54451 3.29259 -1.14617e-19)
(2.62711 0.460638 4.16374e-18)
(5.53327 -4.33748 9.20516e-19)
(6.9692 -4.81998 0)
(3.74323 -0.75513 0)
(9.42118 1.10125 0)
(5.47102 -4.25363 0)
(5.53961 -4.29079 0)
(6.1257 2.15346 5.0571e-20)
(6.12964 2.17258 0)
(6.48314 0.625437 1.57419e-19)
(7.12521 0.838 2.58785e-20)
(7.11974 0.880583 -2.90215e-20)
(5.96598 0.982346 1.68363e-19)
(7.42834 -1.18806 1.41102e-19)
(7.45751 -1.27515 7.14025e-20)
(5.97777 -4.67615 9.89167e-19)
(6.26293 0.86929 -1.43173e-20)
(6.32721 0.831518 0)
(7.56007 1.03254 1.69752e-19)
(7.4676 0.768468 -8.05606e-21)
(7.46911 0.80616 -2.36604e-19)
(7.17252 0.884533 0)
(6.59804 -2.18275 0)
(6.59504 -2.12683 -2.21853e-21)
(3.50969 -2.29056 2.09587e-18)
(6.39631 1.04775 1.1069e-19)
(6.39182 1.01584 -2.94899e-20)
(5.43989 -3.98035 0)
(1.54079 -2.05666 3.43116e-17)
(3.95633 1.77002 8.09257e-19)
(4.01068 1.80056 -1.56958e-20)
(2.54155 0.0295461 4.4232e-18)
(4.02331 -1.64825 -1.93817e-17)
(6.03116 2.58827 5.00215e-19)
(8.67313 0.820347 3.93334e-19)
(6.63029 -4.81347 -2.27772e-19)
(2.3504 -0.958041 -1.58151e-18)
(6.66225 2.28558 0)
(6.76106 2.49305 -4.59426e-20)
(6.13777 -2.44687 1.56463e-19)
(3.451 1.39446 -1.8826e-20)
(6.94813 -4.76429 -3.1297e-19)
(6.96392 -4.75036 8.07237e-19)
(6.1264 -1.57441 0)
(7.26297 -1.45736 0)
(7.07797 -1.72828 -1.48787e-19)
(6.94642 2.92479 -2.54434e-19)
(7.26178 0.61283 -1.05953e-19)
(7.34156 -1.58072 9.15613e-21)
(6.34159 2.33639 0)
(4.8726 0.894669 0)
(8.42465 0.259285 0)
(6.01593 -2.40056 -1.04195e-19)
(2.87525 -3.47847 -2.6129e-20)
(2.99236 -3.25734 1.34751e-18)
(6.8038 -0.801452 0)
(6.81675 -0.905168 9.3743e-18)
(6.34635 -4.75434 -1.02879e-18)
(6.90322 2.73365 -1.25572e-19)
(3.35691 -1.89803 1.30562e-18)
(7.89481 0.722192 -5.09159e-19)
(5.96409 -4.72465 0)
(6.48593 3.33652 0)
(6.42336 3.29898 5.46282e-20)
(6.07933 2.63968 0)
(5.06739 -3.27265 -4.45459e-18)
(6.58395 3.72085 0)
(6.72969 2.81767 5.01642e-20)
(6.64255 1.01067 0)
(4.20546 0.976663 5.78042e-19)
(4.18234 0.936228 2.84408e-19)
(6.15573 0.661932 4.86325e-19)
(7.80453 0.758355 0)
(7.79261 0.801153 0)
(7.87809 0.76845 5.02732e-19)
(5.65898 -2.76275 9.13575e-18)
(6.94162 1.09667 9.74007e-22)
(8.2166 -0.511096 0)
(8.19155 -0.427572 -1.04234e-19)
(2.32398 -2.00956 5.39263e-18)
(6.87112 0.853961 -1.46594e-20)
(6.89204 0.882915 0)
(2.69398 -0.131061 6.48805e-18)
(2.75554 0.0365273 0)
(8.45464 -0.215876 -8.0578e-19)
(8.44383 -0.163069 -5.30169e-19)
(6.23219 3.33882 1.26826e-21)
(7.05826 -4.75729 3.54574e-18)
(3.84018 -0.890059 1.7147e-18)
(6.7995 2.37905 1.6214e-20)
(6.74597 2.70019 -1.89205e-19)
(6.37735 2.47063 1.47659e-18)
(7.81821 -0.786973 -6.56441e-21)
(2.6673 -4.46394 6.39125e-18)
(7.04085 0.891827 -1.75296e-20)
(7.04091 0.855338 9.87276e-21)
(7.59121 3.1904 3.87529e-19)
(7.27624 -1.60736 0)
(7.1318 -1.67883 8.28379e-20)
(5.74982 -4.64751 1.36596e-18)
(1.61823 -1.38032 -6.79911e-18)
(4.28091 1.49283 2.16984e-18)
(8.27566 -0.830725 9.13963e-19)
(5.58939 -2.69071 -2.45322e-19)
(5.5998 -2.76167 6.01988e-19)
(4.12017 1.6142 -9.16099e-19)
(4.05249 1.75432 -1.21696e-18)
(7.36507 -1.50861 -8.1143e-21)
(7.34275 -1.45947 6.32943e-20)
(7.45192 -4.11509 0)
(7.98151 -5.00247 0)
(7.69403 -0.716333 2.6613e-19)
(8.13298 -0.424292 8.15867e-19)
(8.18384 0.935619 0)
(3.73668 0.974573 -3.65216e-18)
(7.3986 0.975012 0)
(7.80641 -3.2154 9.74561e-19)
(2.39343 -2.11075 2.0109e-17)
(7.77167 -4.33377 0)
(6.47956 2.29509 -5.82142e-20)
(5.42764 -4.2643 -3.42139e-19)
(5.43634 -4.28429 1.42678e-18)
(6.26005 2.38452 0)
(6.29275 2.37687 -3.57685e-19)
(6.78886 2.25937 0)
(4.48805 -0.0425678 0)
(6.42405 0.563626 -9.78438e-20)
(9.12731 -2.71237 1.53047e-18)
(5.90338 -2.35835 0)
(6.54133 -2.7259 0)
(6.59919 0.815897 -8.79096e-20)
(7.09988 -4.36646 8.64312e-20)
(6.68057 -0.898885 1.70355e-17)
(6.9328 -1.22443 2.82828e-20)
(7.44423 -4.87562 -2.40586e-18)
(7.50365 -4.85575 0)
(6.03772 1.29524 0)
(2.17941 -4.09084 1.00383e-17)
(3.39801 0.645052 -1.82294e-18)
(6.74161 3.43473 2.23941e-19)
(6.32547 -2.10837 1.10266e-19)
(6.09702 3.17865 0)
(4.23842 1.34857 8.18765e-19)
(4.3068 1.26366 1.5647e-18)
(7.244 -0.740987 -3.59036e-19)
(5.85957 1.07871 3.11502e-19)
(7.01472 -1.49915 -1.04331e-20)
(7.02088 -1.57371 1.5218e-19)
(7.7296 1.07769 -2.00164e-19)
(6.52167 0.589032 -1.7015e-19)
(6.8932 0.789022 0)
(6.97929 0.783155 7.91893e-21)
(5.03488 -3.30557 0)
(4.85824 -3.3488 0)
(3.90194 -0.727724 0)
(2.67832 0.575459 -3.40661e-18)
(2.64094 0.53921 0)
(2.65047 0.686039 0)
(7.40984 -0.228807 1.02785e-19)
(6.87797 2.69819 4.38967e-20)
(7.59672 3.24405 2.21726e-19)
(3.98259 -1.54446 0)
(3.92479 -1.56603 7.41252e-19)
(4.90278 0.862854 0)
(6.63548 2.32029 8.87264e-21)
(4.28575 1.7228 0)
(2.55003 -0.907539 4.4921e-18)
(4.70106 -0.0496807 2.25666e-18)
(4.75743 -0.063845 -9.6959e-20)
(7.8906 0.595399 -4.83992e-19)
(6.81068 0.648968 7.88736e-18)
(6.69619 2.7395 3.40238e-19)
(4.49136 0.0889831 0)
(4.51263 0.0252342 0)
(7.52262 1.4551 -3.91938e-20)
(6.58214 2.32011 0)
(6.73355 -4.80718 0)
(6.3635 -0.531507 -6.9782e-21)
(6.87897 -4.81663 -1.13289e-18)
(6.28247 0.973457 -1.17932e-19)
(6.27425 0.937058 1.78834e-19)
(3.74348 -0.673886 -1.00769e-18)
(6.63498 -1.58058 3.27219e-20)
(7.04384 -5.03012 -4.741e-19)
(6.64513 2.23818 1.75893e-20)
(6.77301 -4.75105 6.00672e-19)
(7.093 0.414245 -1.12059e-20)
(7.03314 0.415962 -4.7149e-21)
(4.19503 1.70557 -1.71346e-18)
(4.51542 0.82113 0)
(4.51158 0.877739 3.24105e-21)
(4.85285 -4.58278 7.02379e-19)
(6.48673 0.392007 0)
(6.46545 2.1842 1.42969e-19)
(6.0299 -4.70285 0)
(6.02435 -4.72672 1.01677e-18)
(4.35019 0.611626 -2.58428e-19)
(6.73685 0.885137 0)
(6.80962 0.899922 0)
(6.58909 2.17803 1.39737e-20)
(6.74647 2.28738 4.97185e-22)
(6.79137 2.32391 -1.64507e-20)
(4.74541 -5.09439 -3.61955e-19)
(8.10041 0.526677 -3.80205e-19)
(8.18527 0.521911 0)
(9.06417 -2.75642 3.08609e-18)
(7.22593 -1.57751 -9.80673e-20)
(7.22251 -1.50326 -4.49145e-20)
(7.14149 -1.61822 2.24171e-19)
(5.90017 0.468575 8.37848e-20)
(5.90059 0.526985 0)
(6.18892 0.327467 0)
(6.16962 0.2808 0)
(7.43085 -0.71317 0)
(7.46748 -0.680411 0)
(8.52811 1.00249 5.88204e-19)
(5.7146 3.3839 1.51973e-19)
(6.83115 2.93238 2.44266e-19)
(6.87947 2.912 0)
(7.36725 -4.3782 5.02779e-18)
(6.02633 -0.343492 0)
(7.76199 -4.90802 0)
(4.52327 0.481019 8.53497e-19)
(6.7262 -4.78131 -6.74827e-19)
(6.65102 -4.78318 1.42646e-18)
(7.74039 -4.67375 3.49863e-19)
(6.11552 -1.7455 3.96033e-19)
(7.04591 -4.91873 0)
(6.55725 2.20999 3.25893e-20)
(6.51465 2.1733 0)
(8.17398 -1.80083 -5.34803e-19)
(8.126 -1.13011 -8.84819e-19)
(6.93913 0.948418 5.67174e-21)
(4.39598 -0.152085 0)
(7.25419 -4.88776 7.97657e-19)
(5.88058 2.75361 0)
(5.81076 2.74054 2.26912e-18)
(6.74228 -4.8267 -1.68898e-19)
(4.65587 0.253479 1.55672e-18)
(8.2118 1.00958 0)
(1.70249 -1.7494 0)
(6.51879 1.6671 0)
(6.43993 1.76579 0)
(6.21096 -1.74878 5.71739e-19)
(6.63846 1.05868 2.48024e-20)
(6.56875 1.05239 -9.1823e-21)
(6.6007 2.58618 1.81837e-20)
(6.5645 2.61106 -8.69074e-21)
(6.77605 0.575475 0)
(6.20381 2.42535 -2.43807e-18)
(8.8976 0.602927 0)
(8.78112 0.594741 1.54643e-18)
(6.15624 0.92951 0)
(6.17524 2.93183 0)
(6.20937 3.06729 2.60856e-20)
(6.92259 -1.06813 -1.10839e-20)
(6.65915 3.04904 -1.11581e-19)
(6.63902 3.18806 0)
(6.57776 -1.42296 -2.31888e-19)
(7.91784 -0.910032 2.40855e-19)
(8.03697 -0.803312 6.38465e-19)
(6.05363 2.19897 -1.87916e-19)
(6.10579 2.1836 0)
(7.55331 0.760557 -8.50702e-21)
(8.46574 0.821022 -3.58738e-20)
(8.47122 0.884126 3.33386e-20)
(6.43666 -1.68057 -3.40324e-19)
(6.34938 -1.78375 0)
(2.0988 -1.12631 0)
(5.71264 -4.45018 -1.15658e-18)
(5.59691 -4.41073 1.34391e-18)
(6.96014 -1.82187 -3.98817e-20)
(2.88519 0.51648 0)
(6.89204 2.77641 -7.89404e-21)
(6.85761 2.78844 1.10884e-19)
(5.25906 -4.19797 0)
(4.59854 -3.66929 -3.24908e-18)
(6.54934 -1.66595 -2.5787e-20)
(6.5772 -1.58839 1.01038e-19)
(6.4698 -1.64863 2.97946e-19)
(4.16291 0.548023 2.51674e-18)
(4.09917 0.658329 1.43048e-18)
(6.80143 -4.72159 2.01179e-18)
(7.62968 0.451869 2.67178e-19)
(6.80363 0.499376 -4.86478e-21)
(6.66778 -4.76841 0)
(6.64522 -4.75485 0)
(6.70692 -4.76771 0)
(3.03649 -3.08695 1.16928e-18)
(3.07362 -3.13918 3.30722e-18)
(4.89439 -1.17877 0)
(6.5417 -1.20983 -9.30826e-20)
(8.99375 -0.0293095 -2.66401e-19)
(9.02441 -0.064332 0)
(6.05767 -1.05936 -4.3005e-19)
(6.07145 -1.12926 2.78386e-19)
(7.02833 -4.77677 -2.36977e-18)
(7.00008 -4.76234 2.13347e-18)
(7.04241 -4.80251 0)
(4.37726 1.04047 9.79697e-19)
(4.36682 1.14949 7.43354e-19)
(2.16196 -1.78332 0)
(6.84078 -4.80043 -1.4041e-18)
(6.86777 3.11894 -5.0839e-20)
(6.0121 2.30048 3.81097e-18)
(5.78756 -4.59578 1.07431e-18)
(5.79005 -4.62257 0)
(2.63758 -3.29452 -8.17037e-18)
(8.30775 -0.609717 9.22071e-19)
(8.01152 0.184779 6.67769e-19)
(8.1384 0.157369 2.01078e-19)
(6.33947 0.900047 -2.66538e-19)
(2.58033 -0.107601 -6.40801e-18)
(6.37691 3.08686 0)
(6.46349 3.08641 0)
(6.66887 -0.70866 -1.15084e-17)
(6.724 -0.803082 0)
(6.98619 -3.55959 0)
(8.32997 -0.305776 -8.79109e-19)
(8.30455 -0.236216 1.31066e-18)
(8.06261 -1.04831 0)
(7.99454 -1.02096 -3.13366e-19)