/*--------------------------------*- C++ -*----------------------------------*\
  =========                 |
  \\      /  F ield         | OpenFOAM: The Open Source CFD Toolbox
   \\    /   O peration     | Website:  https://openfoam.org
    \\  /    A nd           | Version:  6
     \\/     M anipulation  |
\*---------------------------------------------------------------------------*/
FoamFile
{
    version     2.0;
    format      ascii;
    class       volScalarField;
    location    "200";
    object      nut;
}
// * * * * * * * * * * * * * * * * * * * * * * * * * * * * * * * * * * * * * //

dimensions      [0 2 -1 0 0 0 0];

internalField   nonuniform List<scalar> 
29884
(
0.276164
0.225542
0.122063
0.155995
0.15636
0.129644
0.19419
0.263665
0.212972
0.141145
0.153476
0.141699
0.15303
0.287201
0.279836
0.191677
0.287109
0.265535
0.278989
0.172199
0.277189
0.118572
0.142526
0.140649
0.144303
0.155025
0.194126
0.218959
0.150194
0.253172
0.148657
0.162929
0.195269
0.185291
0.143754
0.147363
0.249245
0.166631
0.179339
0.18832
0.231579
0.184848
0.176343
0.200846
0.183852
0.167175
0.175991
0.176651
0.136629
0.170886
0.167683
0.17426
0.192774
0.275059
0.263136
0.267481
0.186682
0.283759
0.261633
0.26609
0.19903
0.191185
0.13528
0.17105
0.166636
0.172806
0.280513
0.204692
0.30259
0.211432
0.141249
0.149599
0.143863
0.109379
0.317779
0.280401
0.233348
0.230908
0.225614
0.211561
0.180659
0.197566
0.121226
0.142327
0.127126
0.0965976
0.148763
0.156723
0.139323
0.0708345
0.145382
0.157317
0.0999194
0.0623588
0.15178
0.000343998
0.139835
0.139909
0.149678
0.0646779
0.139782
0.139248
0.169761
0.177762
0.152745
0.196589
0.0767963
0.0753803
0.153827
0.139133
0.162907
1.80605e-05
0.136534
0.12487
0.141388
0.14207
0.149621
0.113649
0.147816
0.137065
0.139771
0.141237
0.161531
0.140087
0.133756
0.262043
0.225514
0.203989
0.300771
0.147715
0.143052
0.147304
0.253807
0.237501
0.135802
0.145633
0.165762
0.151418
0.163856
0.163986
0.155002
0.162074
0.173293
0.157621
0.171254
0.17432
0.160775
0.165463
0.178588
0.173884
0.171509
0.0940086
0.082047
0.184008
0.249099
0.215929
0.199413
0.175613
0.229844
0.201711
0.189633
0.15616
0.154354
0.172997
3.91251e-05
1.60364e-05
0.204239
0.160427
0.139527
0.139542
0.212195
0.13923
0.139061
0.124944
0.127265
0.151898
0.144126
0.188917
0.142648
0.156138
0.145823
0.129019
0.131217
0.135228
0.124006
0.134369
0.139604
0.139238
0.155692
0.150321
0.156155
0.141563
0.136733
0.143531
0.146334
0.146748
0.141212
0.146815
0.151876
0.149791
0.218072
0.17743
0.153695
0.142325
0.15004
0.136357
0.145959
0.131859
0.142631
0.185217
0.17442
0.215186
0.218737
0.194452
0.257639
0.0713449
0.0997957
0.0801827
0.11249
0.0434994
0.0425697
0.1282
0.137504
0.119895
0.0843994
0.042207
0.0913551
0.0529545
0.014813
0.0979651
0.0869375
0.0869195
0.0969198
0.102163
0.10675
0.0931454
0.0906179
0.138058
0.133072
0.060803
0.0803742
0.000630542
0.0739091
0.0793438
0.104188
0.123739
0.0902723
0.0861258
0.130602
0.131159
0.111962
0.0754208
0.114475
0.1111
0.0410507
0.0421348
0.0464429
0.0445579
0.12914
0.125753
0.117042
0.101922
0.0598494
0.000593844
0.0803423
0.0800492
0.128081
0.123119
0.122733
0.0800397
0.0847462
0.086165
0.0483504
0.0711708
0.0645079
0.0757374
0.070493
0.0532618
0.0566293
0.0703115
0.120307
0.0983249
0.129748
0.0880425
0.138285
0.116793
0.116557
0.0883548
0.000270908
0.137808
0.0471469
0.0968728
0.0966301
0.0647066
0.102304
0.102547
0.108069
0.0971879
0.0980065
0.0848955
0.113207
0.0927353
0.0946277
0.0933738
0.0519004
0.0595983
0.074675
0.131587
0.110905
0.111885
0.112641
0.109995
0.0453044
0.0498007
0.0528711
0.106068
0.109281
0.0939617
0.128492
0.128777
0.12885
0.0622072
0.0568279
0.0569311
0.110014
0.0874099
0.0451714
0.0454741
0.0468442
0.0443856
0.111212
0.112858
0.113024
0.111333
0.0716123
0.0651742
0.137708
0.138321
0.0469094
0.0463031
0.126957
0.122025
0.0445642
0.1116
0.135805
0.0449126
0.0491069
0.0473381
0.0468583
0.0709252
0.0700743
0.0638291
0.0849136
0.0860105
0.0839462
0.0610931
0.0556905
0.0525722
0.0538923
0.0560938
0.0619669
0.0725743
0.132649
0.121467
0.109668
0.109971
0.120831
0.133199
0.000234316
0.0390131
0.123393
0.115238
0.137241
0.144521
0.129715
0.0990133
0.0939994
0.120373
0.104212
0.10738
0.102939
0.116988
0.126921
0.12275
0.131669
0.0924149
0.100697
0.096322
0.096689
0.0881377
0.0841708
0.0824443
0.0903739
0.105561
0.108439
0.110007
0.080915
0.0811457
0.100522
0.088886
0.0822755
0.0697375
0.0913929
0.0836665
0.0871151
0.0888036
0.0485086
0.137268
0.138498
0.13947
0.138726
0.0608017
0.0671234
0.0458468
0.0450564
0.0430622
0.0590026
0.117833
0.04393
0.0541497
0.0611911
0.0516514
0.0532405
0.0562072
0.0506059
0.070307
0.0782141
0.0725347
0.075027
0.0505936
0.0552612
0.0532106
0.0525896
0.130405
0.0637172
0.0610663
0.0657935
0.0598614
0.123309
0.128823
0.0889661
0.0918923
0.0915826
0.0892999
0.151394
0.150068
0.135437
0.118126
0.114505
0.118582
0.113191
0.122213
0.13794
0.0749583
0.0845102
0.130817
0.145469
0.139602
0.130567
0.122695
0.00886972
0.124269
0.125708
0.0727548
0.0929097
0.0955735
0.0982956
0.0905458
0.0809013
0.0899141
0.0856943
0.0854637
0.137953
0.137767
0.13802
0.139681
0.139621
0.166087
0.151321
0.157732
0.159164
0.140614
0.144608
0.142523
0.14247
0.0778675
0.0741237
0.0714631
0.0797061
0.103352
0.102063
0.106036
0.0455409
0.0436171
0.0433331
0.0454734
0.136969
0.134696
0.136222
0.00139635
0.00443043
0.138689
0.0142653
0.119647
0.139543
0.138723
0.00131804
0.00345726
0.139042
0.139061
0.139234
0.138889
0.132182
0.138526
0.124269
0.000297514
0.000320257
0.137325
0.0830767
0.229837
0.139336
0.255579
0.126819
0.140697
0.138876
0.00022615
0.141807
0.134471
0.140302
0.137804
0.130927
0.123011
0.137244
0.122467
0.134567
0.144936
0.129746
0.124509
0.170954
0.211182
0.240837
0.117653
0.117643
0.139074
0.139053
0.139762
0.139613
0.130196
0.00646741
0.128681
0.122018
0.11354
0.139146
0.126534
0.13913
0.139113
0.139081
0.00326578
0.138425
0.138642
0.128904
0.129731
0.130626
0.123437
0.243863
0.209826
0.131554
0.127618
0.133382
0.101433
0.106789
0.128208
0.128925
0.184438
0.205106
0.12849
0.251911
0.13824
0.138342
0.253392
0.207537
0.000807677
0.125738
0.261173
0.0955803
0.141818
0.14299
9.8609e-05
0.0750241
0.0685812
0.137498
0.139596
0.13939
0.130911
0.121293
0.131262
0.129525
0.0424659
0.0428336
0.144092
0.14151
0.145057
0.139543
0.139283
0.000543522
0.13895
0.137354
0.136098
0.137819
0.138083
0.138304
0.183994
0.133343
0.136268
0.130142
0.132746
0.16042
0.166221
0.199392
0.177089
0.121227
0.137562
0.133653
0.141641
0.1316
0.13192
0.145766
0.159888
0.150047
0.146689
0.123213
0.119305
0.0566617
0.0525393
0.0495775
0.0436581
0.139023
0.140684
0.142156
0.253666
0.194885
0.0861836
0.0926366
0.201007
0.172186
0.196975
0.145556
0.159315
0.153828
0.164574
0.234734
0.189093
0.181644
0.128141
0.12839
0.138774
0.138578
0.139573
0.138303
0.157576
0.11107
0.114477
0.118189
0.137589
0.138197
0.13757
0.137655
0.137247
0.139685
0.16217
0.153602
0.133246
0.139981
0.14291
0.14562
0.136031
0.13666
0.211643
0.267376
0.237886
0.108794
0.113116
0.115747
0.00525486
0.0050871
0.136161
0.1335
0.0641363
0.0602784
0.165911
0.168766
0.162045
0.0457168
0.0420062
0.10966
0.108585
0.0392506
0.0525038
0.0982781
0.13018
0.129416
0.130711
0.0257861
0.124097
0.0123591
0.0958646
0.0433593
0.0572936
0.031817
0.033783
0.127677
0.082323
0.0164308
0.0330972
0.0343834
0.110557
0.10859
0.128754
0.122204
0.122452
0.13021
0.106738
0.105367
0.0635538
0.130593
0.130239
0.112296
0.115238
0.115101
0.121583
0.118635
0.118963
0.0677782
0.130484
0.130426
0.0440489
0.00839705
0.0458229
0.0493322
0.0291069
0.106197
0.0934107
0.0606229
0.105614
0.0386781
0.0943161
0.0792809
0.122429
0.008449
0.126387
0.12682
0.12601
0.109038
0.112129
0.0592179
0.11906
0.106827
0.0939288
0.114395
0.0770528
0.12324
0.032132
0.0383516
0.107081
0.0987124
0.088259
0.0675232
0.0591972
0.10135
0.0627778
0.0571157
0.0593183
0.0910648
0.00169723
0.042232
0.0673925
0.128669
0.0778892
0.0762369
0.130212
0.104445
0.104909
0.102282
0.00166564
0.125364
0.0851572
0.086665
0.0383891
0.125711
0.125597
0.0382348
0.0399231
0.0747831
0.0759256
0.060878
0.128874
0.0875849
0.0914186
0.0704404
0.103826
0.0985758
0.0138832
0.123868
0.123807
0.0405297
0.108222
0.111098
0.049111
0.00526552
0.0737073
0.0812408
0.120462
0.119851
0.0590916
0.0531181
0.106654
0.107523
0.0946579
0.0250738
0.102848
0.0893116
0.0883679
0.0379317
0.116552
0.0811372
0.00389349
0.0670381
0.0915275
0.0312441
0.0313224
0.0954965
0.0952696
0.118935
0.107906
0.128944
0.022005
0.118901
0.123655
0.128495
0.126326
0.114919
0.117013
0.12368
0.122154
0.130984
0.0124925
0.0134579
0.048029
0.12235
0.0678496
0.0737922
0.0806565
0.11362
0.129602
0.114361
0.113784
0.106736
0.128359
0.125365
0.124242
0.106783
0.103108
0.090166
0.0336421
0.0320785
0.0316409
0.112183
0.0691001
0.0374314
0.0953133
0.0927108
0.115781
0.0896258
0.0713354
0.0378603
0.115473
0.117026
0.101333
0.136227
0.107882
0.106803
0.10836
0.111932
0.0887401
0.112644
0.127003
0.12174
0.130794
0.130759
0.0819857
0.120422
0.0766498
0.0992369
0.116819
0.121383
0.122167
0.063428
0.100247
0.099036
0.0763986
0.135332
0.102185
0.066774
0.0664418
0.0937155
0.127305
0.126594
0.104785
0.0986872
0.0972865
0.062086
0.0933846
0.0889168
0.0244116
0.109639
0.110002
0.111199
0.129612
0.129576
0.129449
0.129441
0.109663
0.108861
0.0682822
0.061499
0.0610598
0.0606441
0.128304
0.12918
0.0406616
0.103155
0.113088
0.108009
0.0557608
0.125382
0.12961
0.0999889
0.103726
0.077765
0.0853189
0.125263
0.106283
0.0790469
0.0852723
0.0856737
0.112626
0.111319
0.0867894
0.0145475
0.126308
0.124544
0.124628
0.128812
0.129477
0.078895
0.0799067
0.125945
0.10271
0.0469939
0.0556645
0.130833
0.0770952
0.0706079
0.117886
0.0621214
0.0582031
0.12177
0.0941266
0.0907896
0.108019
0.108121
0.112464
0.0734172
0.0728936
0.122596
0.12307
0.0361607
0.045591
0.0377119
0.114372
0.0423167
0.0655679
0.065361
0.0284491
0.0241819
0.121333
0.121157
0.122243
0.0835107
0.0775047
0.119068
0.109507
0.12541
0.109504
0.10847
0.112134
0.0403024
0.0419849
0.12368
0.123204
0.0449529
0.0428146
0.128547
0.128239
0.128556
0.127825
0.129112
0.0887864
0.0865499
0.0165554
0.120117
0.0543491
0.105271
0.0511382
0.0514647
0.0267501
0.0810417
0.0957876
0.0907589
0.130399
0.0319199
0.0949608
0.0962355
0.116149
0.110409
0.115135
0.0809141
0.0824359
0.08839
0.0908758
0.0993682
0.0987606
0.0973467
0.12661
0.128412
0.0931608
0.044446
0.0581147
0.121392
0.0767006
0.0776127
0.108447
0.109641
0.0904578
0.0838138
0.0861694
0.125949
0.125567
0.125604
0.125946
0.124908
0.126667
0.127756
0.0896089
0.128964
0.0192757
0.07335
0.0809069
0.0601811
0.0605175
0.105603
0.129901
0.114519
0.1177
0.115665
0.115572
0.115861
0.11682
0.114934
0.106109
0.104156
0.0397915
0.0831066
0.0803613
0.124869
0.125179
0.124367
0.00993814
0.124203
0.105832
0.10312
0.124228
0.123604
0.124324
0.122243
0.123445
0.0555261
0.0599818
0.0586354
0.0566974
0.0544391
0.0502626
0.0851987
0.0948282
0.0943899
0.0951162
0.118068
0.0976513
0.0368667
0.0729
0.0667217
0.0711401
0.0676129
0.042428
0.105663
0.112113
0.112664
0.0708863
0.106923
0.103969
0.113588
0.0960628
0.0869983
0.0834607
0.0873479
0.0983639
0.096039
0.0998218
0.0822811
0.069616
0.12866
0.128702
0.10491
0.0408822
0.129963
0.12999
0.129664
0.0881134
0.00142762
0.129384
0.0890325
0.0868114
0.0293967
0.000379699
0.10169
0.111157
0.107362
0.105709
0.106861
0.0902774
0.105117
0.0994435
0.112257
0.0370654
0.0728989
0.0726512
0.0754146
0.0744327
0.100073
0.0985925
0.101239
0.12464
0.125334
0.000943237
0.10137
0.0993269
0.100569
0.103216
0.0985975
0.000841028
0.000931519
0.0966678
0.0557653
0.0481367
0.0880748
0.0913392
0.0909531
0.0881893
0.0968809
0.0699368
0.0676481
0.122737
0.000744806
0.128265
0.128427
0.0790306
0.0768031
0.121378
0.0333531
0.123659
0.122528
0.0967503
0.0970822
0.067882
0.0887837
0.0877935
0.090575
0.118839
0.118925
0.129489
0.0850972
0.115519
0.05092
0.00193271
0.0415296
0.120654
0.00068626
0.0837274
0.100513
0.101087
0.0293728
0.102149
0.100325
0.11579
0.117974
0.0850899
0.080646
0.0553734
0.0560964
0.0526573
0.0782003
0.0789486
0.0764343
0.130604
0.130639
0.00136362
0.0381487
0.000510792
0.11461
0.0307752
0.136039
0.136236
0.136355
0.136
0.124602
0.104272
0.103447
0.137825
0.138157
0.11457
0.075861
0.0738085
0.0740395
0.078064
0.114731
0.125892
0.127041
0.0916851
0.0874075
0.125538
0.122885
0.124523
0.000674872
0.0783659
0.0800249
0.0816482
0.0769106
0.130748
0.130671
0.0417049
0.0914647
0.0931662
0.130983
0.120029
0.120749
0.116047
0.0664369
0.0625566
0.0699346
0.0917403
0.0912037
0.128161
0.129601
0.0790463
0.0754784
0.123204
0.124226
0.0912399
0.0920829
0.0922079
0.0911099
0.12931
0.129246
0.119111
0.126314
0.12611
0.127937
0.0971843
0.0947265
0.000236711
0.0903076
0.0923608
0.0569089
0.0508844
0.000345228
0.000556834
0.000344106
0.0373098
0.0367484
0.0378992
0.0382307
0.112172
0.116507
0.110418
0.125971
0.0366899
0.0610104
0.0603835
0.0649662
0.124611
0.12185
0.124895
0.12205
0.000394263
0.00126201
0.000563367
0.00147809
0.0257154
0.0337792
0.0790713
0.0770488
0.000827155
0.0978458
0.0390753
0.0899229
0.0896218
0.092498
0.0973711
0.09613
0.0962187
0.105416
0.106925
0.104261
0.102324
0.129232
0.113801
0.117198
0.112296
0.0934989
0.09552
0.090011
0.11644
0.106134
0.110852
0.0925737
0.0934801
0.0937313
0.129402
0.128091
0.128118
0.127653
0.0642061
0.0685557
0.129876
0.127386
0.12693
0.127449
0.000304942
0.000965191
0.0990578
0.0970737
0.0967481
0.0992369
0.0832247
0.125172
0.12544
0.124602
0.0896143
0.0911343
0.0915338
0.0890689
0.117367
0.11781
0.116266
0.132412
0.0906609
0.123061
0.123431
0.122509
0.124046
0.0773195
0.0833922
0.120023
0.120851
0.12539
0.124105
0.0606122
0.128382
0.0816384
0.0786479
0.1086
0.000238352
0.11537
0.127066
0.125841
0.126387
0.125347
0.0829259
0.0828102
0.0224168
0.100837
0.100083
0.102939
0.0952946
0.0987272
0.0911181
0.106133
0.109884
0.109106
0.0236284
0.024084
0.0926721
0.0928011
0.122644
0.122429
0.123335
0.000249324
0.0554622
0.000343374
0.122428
0.128202
0.128423
0.127831
0.128597
0.00247296
0.0853123
0.0882516
0.0855963
0.133577
0.132914
0.133131
0.134087
0.120366
0.11963
0.118598
0.1213
0.0403396
0.0370553
0.0392096
0.0379356
0.113792
0.109852
0.113795
0.119113
0.00115862
0.0268086
0.0934412
0.0913866
0.0918161
0.0926521
0.112651
0.113165
0.113743
0.0834858
0.119575
0.1193
0.122473
0.119852
0.11906
0.119437
0.0931339
0.0953431
0.0937879
0.0973254
0.0986252
0.0829402
0.0797584
0.0790415
0.0833578
0.102543
0.104551
0.103732
0.103242
0.0969079
0.0949131
0.100324
0.111666
0.110193
0.124069
0.124123
0.123287
0.127835
0.126117
0.0674656
0.0692111
0.120823
0.119198
0.119509
0.120616
0.0786506
0.0749075
0.0761413
0.126913
0.129791
0.0917758
0.0877665
0.0861592
0.0604285
0.112252
0.109585
0.120102
0.101729
0.101574
0.0866574
0.0835008
0.0856154
0.0853929
0.0834987
0.000921473
0.110738
0.112365
0.111259
0.111853
0.13706
0.13721
0.101495
0.0985551
0.0993527
0.100604
0.110917
0.111112
0.109307
0.0798472
0.0850489
0.078972
0.0931025
0.0960797
0.0939091
0.0954434
0.127975
0.127479
0.113534
0.0984203
0.0972209
0.0987911
0.0967442
0.0232267
0.128277
0.0230577
0.0231997
0.0970546
0.0993566
0.0986775
0.0975924
0.0598101
0.0977051
0.0975354
0.122879
0.122486
0.122694
0.102873
0.0990004
0.125729
0.126573
0.124856
0.109246
0.102613
0.105976
0.106059
0.0676466
0.130981
0.130869
0.0434125
0.049253
0.0965803
0.0941343
0.0956399
0.00124978
0.110324
0.126525
0.0717932
0.0723246
0.0733301
0.119934
0.0893496
0.0864616
0.0904629
0.110996
0.108323
0.109781
0.0985992
0.0985784
0.128661
0.129636
0.101548
0.103473
0.105914
0.098175
0.094247
0.107516
0.0494576
0.0558188
0.0524778
0.0477136
0.0480345
0.0201887
0.0169694
0.0240516
0.106876
0.10871
0.110583
0.11361
0.113272
0.114804
0.122012
0.121259
0.129922
0.12968
0.09865
0.0973182
0.0900112
0.0920331
0.104666
0.119027
0.0955787
0.0960792
0.0810289
0.0835276
0.0793271
0.0853754
0.0866055
0.0866374
0.031581
0.0348417
0.118122
0.116548
0.117098
0.11762
0.0839175
0.0954651
0.0964751
0.0975654
0.0427604
0.0420911
0.0440687
0.0404965
0.000674468
0.100376
0.101086
0.102148
0.0705291
0.0661819
0.065697
0.0600535
0.124104
0.123345
0.124308
0.0740027
0.0803809
0.129311
0.128583
0.129143
0.128855
0.0805784
0.0926636
0.0930534
0.0910323
0.0907566
0.0921453
0.0897821
0.121318
0.121881
0.120785
0.0329778
0.0347093
0.0304776
0.0803688
0.0821811
0.0777475
0.0606389
0.0572231
0.100239
0.0975459
0.108393
0.109415
0.109381
0.118085
0.127616
0.12824
0.12853
0.085476
0.0953657
0.0923786
0.0934669
0.0943447
0.111436
0.109581
0.109693
0.111209
0.128844
0.116444
0.118221
0.115796
0.119067
0.122397
0.0909194
0.0901991
0.0913778
0.0898473
0.088602
0.0897707
0.0901786
0.0883555
0.0313038
0.101617
0.101952
0.129993
0.129956
0.00033776
0.0340829
0.0677545
0.0670653
0.115996
0.116961
0.119171
0.118546
0.119861
0.128115
0.126188
0.0155084
0.0187513
0.100852
0.097671
0.09948
0.0991595
0.130029
0.104818
0.10681
0.104089
0.0218151
0.0953955
0.0941371
0.0966994
0.0927039
0.0918975
0.094063
0.0922485
0.0936228
0.0851441
0.0868946
0.0839704
0.131036
0.078692
0.0761565
0.0758096
0.0788411
0.0668594
0.0695029
0.129289
0.122577
0.122836
0.122795
0.0795022
0.0831429
0.0823359
0.0799815
0.127531
0.128168
0.112249
0.113537
0.113399
0.112338
0.0685306
0.0967971
0.096956
0.091781
0.0593669
0.053005
0.0904044
0.0925997
0.129139
0.128816
0.129245
0.0973017
0.0965153
0.0962213
0.0779811
0.0753868
0.0768427
0.105543
0.106968
0.107483
0.105072
0.0324018
0.0681695
0.0680271
0.0708347
0.0652935
0.0121956
0.0864223
0.0977099
0.104169
0.1154
0.116516
0.116468
0.115379
0.128444
0.0945342
0.0963711
0.0948353
0.0958605
0.117193
0.11831
0.117109
0.083677
0.0985053
0.10026
0.0993352
0.114558
0.116265
0.0920176
0.0983126
0.0959895
0.124709
0.1226
0.125063
0.128375
0.0340177
0.130269
0.0486571
0.0443797
0.0865701
0.0857196
0.0894431
0.0417561
0.0379457
0.0444787
0.118276
0.123753
0.125325
0.122659
0.0714934
0.0702472
0.0850426
0.0824619
0.0831276
0.0845142
0.10165
0.103858
0.0416568
0.043661
0.0886324
0.0866556
0.088622
0.0863883
0.12429
0.124717
0.0903589
0.110636
0.111536
0.112242
0.0909799
0.0910896
0.0878865
0.0484122
0.0957578
0.0955198
0.0990983
0.0922647
0.0957491
0.0990988
0.0974646
0.0971907
0.102206
0.0995083
0.100822
0.117278
0.117603
0.114791
0.119671
0.06029
0.0831293
0.081593
0.114315
0.115911
0.101615
0.100081
0.0998594
0.101749
0.102972
0.104707
0.120664
0.118754
0.0875113
0.112476
0.114495
0.114398
0.076423
0.0702886
0.0748764
0.0710032
0.0685797
0.0747843
0.126945
0.125711
0.125472
0.0879973
0.0790566
0.0843253
0.083187
0.107572
0.106418
0.109663
0.10017
0.109559
0.113853
0.112568
0.110617
0.11936
0.0611302
0.0633898
0.0667484
0.0585118
0.107391
0.105428
0.108346
0.0402263
0.0400769
0.0823786
0.0835195
0.0814873
0.0843786
0.07178
0.0749804
0.0868627
0.0885507
0.0942212
0.0636868
0.0893135
0.0886332
0.0798685
0.0197624
0.127766
0.126863
0.127406
0.098786
0.0552754
0.0836812
0.125154
0.124465
0.127136
0.122444
0.0941503
0.094568
0.0913469
0.0514404
0.0528213
0.000208236
0.112441
0.078548
0.114915
0.11288
0.11358
0.114289
0.117964
0.119323
0.118974
0.118301
0.101794
0.102881
0.100994
0.103521
0.0868997
0.0881579
0.0890531
0.0859366
0.12286
0.122209
0.122953
0.122063
0.0968949
0.0978748
0.0944768
0.0720049
0.0322608
0.0993726
0.126004
0.123629
0.123828
0.122666
0.0538059
0.0616928
0.093043
0.0938866
0.0937419
0.0740223
0.0643826
0.062943
0.0616329
0.0654773
0.123904
0.121692
0.120564
0.120979
0.121277
0.0486089
0.0460798
0.0479093
0.0464434
0.0930695
0.0951669
0.0943697
0.0937097
0.0753709
0.0736507
0.0749496
0.0742665
0.125751
0.125811
0.12622
0.12532
0.0745327
0.0703064
0.073393
0.0713815
0.0939613
0.0919956
0.120381
0.116852
0.116298
0.120245
0.114659
0.117424
0.11589
0.129577
0.124122
0.122508
0.122997
0.128255
0.127575
0.128358
0.12728
0.12716
0.125119
0.125807
0.059637
0.1218
0.121158
0.00021283
0.0984859
0.100221
0.0983503
0.100202
0.114272
0.116523
0.118756
0.0739107
0.0201706
0.0185165
0.0221394
0.120332
0.121391
0.128057
0.115195
0.114143
0.11481
0.113418
0.114632
0.126724
0.123516
0.125145
0.125644
0.1276
0.128721
0.127993
0.111406
0.11443
0.0953237
0.0984822
0.0965734
0.000138375
0.126018
0.124464
0.110006
0.108522
0.0651139
0.06664
0.0637048
0.0678715
0.0718282
0.0787401
0.0426643
0.0435198
0.11891
0.117736
0.0954903
0.0943612
0.0960373
0.093994
0.123168
0.116542
0.11432
0.110254
0.107574
0.108766
0.109006
0.082784
0.082133
0.0832285
0.0814274
0.0810797
0.0818156
0.0820058
0.0806202
0.0938847
0.0970321
0.0938325
0.0779342
0.0794311
0.0799654
0.0772598
0.101776
0.104527
0.111014
0.0667899
0.0723573
0.0715471
0.00119252
0.0881378
0.0855979
0.0877022
0.0802479
0.0751436
0.0789708
0.07924
0.0781841
0.079778
0.0843861
0.0777765
0.0921905
0.0951149
0.0937456
0.0935685
0.116671
0.117674
0.118157
0.116094
0.0835473
0.0861613
0.083427
0.0865216
0.129555
0.129713
0.129324
0.0914177
0.0923648
0.0932022
0.0906184
0.130502
0.130701
0.130392
0.0542616
0.0902352
0.0887204
0.0891709
0.0900161
0.0571452
0.0895513
0.0464069
0.00887815
0.114837
0.00454254
0.00375207
0.00356976
0.0405189
0.0998983
0.0359058
0.000135889
0.000400254
0.000223555
0.000381977
0.0726697
6.04605e-05
0.000252306
0.00820247
0.00823197
0.111668
0.00790462
0.00685532
0.138823
0.0130892
0.129137
0.0122517
0.038749
0.0391887
0.0381028
9.57358e-05
0.0992378
0.0102766
0.0176735
0.0183279
0.0207286
0.133484
0.137074
0.0140469
0.0154306
0.0733872
0.0031576
0.0911056
0.137278
0.114201
0.122633
0.119187
0.105136
0.00979101
0.0453963
0.000173244
0.000374877
0.000371333
0.0509291
0.0471095
0.023554
0.0583457
0.00732357
0.00891267
0.0399118
0.000334924
0.113464
0.0883143
0.138674
0.138553
0.000926413
0.0629485
0.0601023
0.00970833
0.0186538
0.0552398
0.0537846
0.0557151
0.0884268
0.0914685
0.0203564
0.0933115
0.137546
0.137203
0.0633196
0.000245265
0.00399716
0.0117127
0.0897545
0.00961913
0.0536261
0.000428339
0.0518081
0.040411
0.130229
0.00741923
0.0256947
0.0230485
0.138397
0.114213
0.00344118
0.0792195
0.0358902
0.00694873
0.135218
0.0598487
0.00760062
0.0319997
0.03082
0.0228918
0.0229573
0.0212774
0.0401943
0.0375689
0.0279068
0.0655687
0.0663692
0.0336528
0.00301806
0.0385103
0.0816292
0.136175
0.0373012
0.118776
0.0384569
0.132111
0.000383323
0.0399159
0.0393684
0.0398716
0.117415
0.0692616
0.0701673
0.015109
0.000424668
0.00530402
0.00659902
0.0957678
0.0997233
0.0438887
0.03185
0.0122343
0.0153952
0.00812152
0.0360599
0.038735
0.127911
0.00240395
0.137247
0.13766
0.054218
0.0453597
0.0318883
0.106469
0.104727
0.0312848
0.041894
0.0662166
0.072047
0.0231427
0.0108493
0.0861082
0.0468557
0.0373666
0.0962868
0.0977526
0.093547
0.00943846
0.0247343
0.125413
0.124625
0.0585927
0.054127
0.0611346
0.0817479
0.084331
0.0955046
0.0114649
0.0112776
0.0446242
0.138593
0.011023
0.0143651
0.0131171
0.00987548
0.0128545
0.0118089
0.0154267
0.0142618
0.011966
0.0120954
0.0159275
0.0122236
0.0159086
0.0317813
0.0326811
0.0593519
0.0122292
0.0167027
0.0339849
0.000346034
0.00113576
0.0415106
0.0115808
0.0473312
0.0428058
0.0407369
0.0404594
0.0235426
0.0065438
0.0148475
0.0189298
0.123537
0.0137145
0.095833
0.095151
0.092362
0.093184
0.0761443
0.0168002
0.0465778
0.0173908
0.131282
0.0608717
0.00293116
0.0259435
0.0244397
0.0286366
0.00776015
0.0177363
0.140006
0.047045
0.0500973
0.011563
0.00890785
0.11599
0.126155
0.131836
0.134097
0.0186199
0.0528406
0.138789
0.0533786
0.0535195
0.000863329
0.0190316
0.041013
0.117552
0.120129
0.0243468
0.105829
0.0216953
0.0190075
0.0212309
0.0154286
0.128055
0.130121
0.131085
0.00162853
0.033031
0.12795
0.129059
0.115319
0.102779
0.0517497
0.0848451
0.0774022
0.125301
0.139188
0.139065
0.0559163
0.137524
0.00249794
0.00319659
0.00748541
0.040968
0.0328727
0.0385609
0.0391491
0.0374507
0.0372785
0.00351026
0.00848463
0.00567093
0.119803
0.107989
0.0238583
0.120851
0.129801
0.130368
0.0842624
0.0684223
0.0663256
0.166913
0.148707
0.00169549
0.0189902
0.11605
0.114843
0.00923195
0.00969737
0.0756523
0.0749269
0.0830495
0.0802278
0.0962566
0.100499
0.0407968
0.0573643
0.0541107
0.108396
0.0374348
0.0379546
0.0600235
0.0363395
0.0352248
0.0490579
0.00422404
0.0605549
0.007137
0.135585
0.0230168
0.0247209
0.0569955
0.0724774
0.0573989
0.0563737
0.100948
0.0938935
0.109356
0.0575689
0.101844
0.0305842
0.138125
0.0807441
0.00206552
0.0345378
0.00346587
0.00334496
0.137698
0.0402541
0.0399358
0.0388986
0.137701
0.13459
0.135948
0.0544886
0.0870925
0.0881586
0.0769383
0.0782369
0.0871737
0.042232
0.0428626
0.0422044
0.0429222
0.128789
0.124602
0.136089
0.136614
0.112947
0.112156
0.125699
0.00657123
0.00592767
0.127793
0.0358522
0.136938
0.0601444
0.0621977
0.0641874
0.113109
0.11015
0.112199
0.123785
0.147497
0.139601
0.126902
0.126065
0.126465
0.122601
0.0125641
0.0790424
0.0687342
0.0344327
0.0339039
0.0992132
0.0662031
0.100266
0.105755
0.0739639
0.170521
0.0359673
0.0428589
0.0385912
0.0394207
0.0295635
0.0351343
0.0363235
0.121869
0.124282
0.123258
0.0712211
0.071969
0.0306971
0.125888
0.0405576
0.0312811
0.0412553
0.0393739
0.0385205
0.0691588
0.0730033
0.0929134
0.096605
0.133327
0.127378
0.00350819
0.00509428
0.138714
0.0428193
0.0256124
0.0310765
0.119202
0.117712
0.138566
0.112387
0.13867
0.13301
0.132248
0.0293766
0.0586793
0.126323
0.127125
0.125132
0.12576
0.12081
0.114506
0.0947452
0.0971212
0.125692
0.123416
0.010262
0.118995
0.117894
0.0986731
0.13892
0.138752
0.138696
0.12446
0.125359
0.137676
0.139694
0.138335
0.118361
0.0612576
0.0645969
0.0636568
0.12334
0.119758
0.121033
0.12908
0.122769
0.114878
0.0853025
0.0884685
0.12632
0.120971
0.0464136
0.0467851
0.0676816
0.0391598
0.000284029
0.00777205
0.0963905
0.0393272
0.0433758
0.0447389
0.0885954
0.00105635
0.00305788
0.111605
0.112258
0.0491855
0.00617194
0.0211428
0.0243444
0.0166077
0.0554756
0.0568777
0.0613308
0.113304
0.115055
0.0506369
0.0358931
0.0366074
0.0180641
0.020006
0.12954
0.127714
0.126597
0.127156
0.119772
0.109974
0.109211
0.107623
0.0953897
0.104506
0.101446
0.134146
0.135906
0.0957502
0.0940889
0.0524097
0.0555623
0.13869
0.138615
0.242749
0.227186
0.0725505
0.0217594
0.0785151
0.0272421
0.0317728
0.0280578
0.0276408
0.00663516
0.135401
0.0627358
0.0720616
0.0913173
0.0860666
0.056374
0.0577712
0.0908642
0.0889316
0.0818646
0.0629953
0.0475678
0.0276533
0.0555215
0.022265
0.0788514
0.136676
0.0304828
0.0314244
0.127718
0.118486
0.0660056
0.0687954
0.0635017
0.0265044
0.0890494
0.0912175
0.105486
0.0670417
0.0642123
0.118505
0.0401525
0.000350243
0.0722591
0.0746724
0.0282185
0.0233296
0.0263732
0.0844113
0.087447
0.0861415
0.105731
0.122005
0.122481
0.12714
0.126156
0.133716
0.0959158
0.0967719
0.0735076
0.0776595
0.0768035
0.0489945
0.0872448
0.0280086
0.139917
0.139681
0.139892
0.135211
0.104732
0.030352
0.0326002
0.0371317
0.0353386
0.0590432
0.0450737
0.0499043
0.0513176
0.0552617
0.0578783
0.0550217
0.0978457
0.103646
0.108211
0.0395196
0.0399023
0.0399243
0.0401089
0.0754114
0.0822453
0.128372
0.112377
0.128368
0.0353038
0.00704512
0.0066922
0.13536
0.0395998
0.124309
0.0119299
0.0508302
0.0471559
0.0508974
0.031205
0.0364545
0.0857855
0.0425749
0.0388258
0.0370743
0.0981358
0.0387633
0.00148241
0.00390945
0.124269
0.138278
0.122936
0.123448
0.0616768
0.111982
0.10706
0.0382376
0.0386802
0.0443482
0.0418199
0.0442878
0.114682
0.038961
0.0392633
0.140026
0.140514
0.0473029
0.0378478
0.0362155
0.0805112
0.138807
0.08988
0.0877479
0.0851981
0.128734
0.041433
0.00861916
0.00253718
0.0050897
0.0429353
0.111917
0.00968332
0.183782
0.00784982
0.00458387
0.00675111
0.0108379
0.00850694
0.00733246
0.00846506
0.010026
0.129055
0.0336213
0.0350511
0.0762157
0.0828779
0.122103
0.120716
0.139394
0.139518
0.139317
0.078058
0.093111
0.0914658
0.0645202
0.0624848
0.0599959
0.0749621
0.074869
0.063882
0.0622123
0.0484346
0.0520438
0.05559
0.145603
0.150654
0.13819
0.137991
0.0445439
0.119842
0.11597
0.0385137
0.0423216
0.137603
0.137278
0.0245815
0.119542
0.118825
0.139083
0.138813
0.0201779
0.133924
0.0651695
0.0715561
0.114632
0.0615501
0.0497854
0.00406308
0.0443174
0.0944212
0.127733
0.128087
0.0529984
0.0600691
0.0628212
0.00795673
0.0682345
0.0688361
0.0604452
0.12486
0.125293
0.126234
0.0371272
0.0824805
0.0879948
0.0882081
0.0859325
0.0701791
0.105006
0.106836
0.0997366
0.0807563
0.0800617
0.0788717
0.0699444
0.0734425
0.00154013
0.112709
0.11379
0.115839
0.057397
0.0545438
0.122487
0.122481
0.136748
0.136695
0.0585748
0.0641543
0.12696
0.127813
0.0879324
0.0886259
0.0872278
0.231664
0.188262
0.0769445
0.0751915
0.029778
0.0331565
0.121637
0.114882
0.117714
0.131451
0.130659
0.129843
0.0743228
0.079035
0.138475
0.138188
0.0946578
0.0934965
0.0948719
0.0880272
0.0840746
0.108233
0.107822
0.10681
0.04365
0.0510958
0.125592
0.126603
0.0446554
0.13809
0.138268
0.111023
0.126938
0.12304
0.0420594
0.0607664
0.0641036
0.0515392
0.0541396
0.0335855
0.138283
0.118802
0.104243
0.110591
0.115751
0.0560248
0.1297
0.138206
0.0494388
0.0032668
0.0075242
0.11495
0.114249
0.0363296
0.076078
0.0692903
0.0645214
0.120594
0.122332
0.0634343
0.0681846
0.0734802
0.0617365
0.0659886
0.0272877
0.0929624
0.091654
0.0607306
0.0285514
0.0286816
0.121831
0.0911101
0.0905648
0.0874771
0.0412912
0.0447879
0.0425655
0.0491576
0.0498813
0.0327733
0.0498032
0.0489797
0.0923446
0.0892136
0.0893672
0.0226719
0.0204157
0.0890573
0.0879119
0.0874825
0.0671828
0.0616566
0.0509233
0.0446682
0.0464935
0.00406569
0.0803324
0.0949619
0.0949813
0.0949483
0.0948012
0.0637843
0.111584
0.112793
0.114876
0.0262517
0.148713
0.160715
0.0511819
0.0478928
0.127895
0.126956
0.150896
0.156052
0.115421
0.112617
0.112033
0.106581
0.101403
0.0993683
0.125996
0.123193
0.124957
0.0843896
0.087247
0.0869924
0.138575
0.140799
0.139965
0.0906377
0.030638
0.118351
0.112519
0.123263
0.121719
0.0808893
0.0832783
0.0635407
0.10005
0.0971072
0.105886
0.103464
0.0681094
0.0704184
0.129006
0.125717
0.123996
0.0830548
0.0835995
0.0668594
0.0739627
0.0725228
0.121562
0.129533
0.127947
0.128816
0.1275
0.118886
0.106573
0.113264
0.130083
0.128646
0.124016
0.125758
0.0705821
0.0698686
0.150771
0.152622
0.0848554
0.0858148
0.0368698
0.00355566
0.0956676
0.0951243
0.0666327
0.118655
0.111833
0.113062
0.122967
0.0107179
0.0409397
0.0463673
0.123604
0.123165
0.0383053
0.036385
0.105577