/*--------------------------------*- C++ -*----------------------------------*\
  =========                 |
  \\      /  F ield         | OpenFOAM: The Open Source CFD Toolbox
   \\    /   O peration     | Website:  https://openfoam.org
    \\  /    A nd           | Version:  6
     \\/     M anipulation  |
\*---------------------------------------------------------------------------*/
FoamFile
{
    version     2.0;
    format      ascii;
    class       volScalarField;
    location    "200";
    object      p;
}
// * * * * * * * * * * * * * * * * * * * * * * * * * * * * * * * * * * * * * //

dimensions      [0 2 -2 0 0 0 0];

internalField   nonuniform List<scalar> 
29884
(
2.80167
0.113517
0.450976
-2.73177
-0.2136
2.41008
0.11004
-4.37201
-0.807601
0.99202
2.73316
0.588248
-1.32868
-2.36262
0.0449881
-1.90793
-0.318992
-2.18829
-4.39881
-2.93376
-3.43866
0.471739
0.207004
3.31206
-1.64678
1.06355
-0.718084
-1.28547
0.251477
0.455163
3.06225
2.64698
-0.738335
5.24178
1.76998
1.63595
0.914205
2.96512
1.75652
1.1089
0.807893
-1.74778
3.01314
5.0143
-3.70635
0.584424
-2.10641
2.19077
0.547912
2.38699
3.04281
-0.354006
1.25139
-0.811293
-2.87736
4.35302
-2.61231
-1.60364
-3.6477
-0.568951
-0.31074
-0.80235
-0.386073
0.941538
1.99928
-2.03287
1.3921
1.64495
0.802872
1.41686
-0.488816
-1.22076
7.81437
0.635631
0.587873
1.50035
-2.7598
-1.30215
-2.58586
0.868846
2.16836
-3.1809
-0.342981
2.00707
-0.179241
14.7604
0.594748
-0.574992
0.173473
18.4286
0.652398
-2.13435
14.6923
19.7068
2.66166
17.8342
1.11279
1.22757
-0.0372411
19.6605
1.4927
1.65273
0.202031
0.600409
0.381051
-1.77932
17.8019
18.4169
3.06928
1.83763
1.39499
17.6122
-0.0519615
-0.162872
-0.151631
1.85568
2.35581
0.153698
3.82582
3.38975
0.74764
2.63319
2.16328
2.65595
-0.307925
3.5373
1.23812
1.5127
-0.673326
2.94232
3.16481
2.82936
-4.20719
-2.20013
-0.180942
-0.642804
2.15071
0.421238
0.402144
0.681615
0.391037
3.10534
1.94034
-1.81533
-1.99677
-1.75519
-1.45133
2.42191
1.92176
2.09942
2.63489
16.1496
17.5357
0.796848
0.692791
1.07024
0.643126
1.27547
0.930889
0.70458
1.04484
3.42454
3.61379
2.73422
24.7583
24.7412
-2.33099
-1.14716
0.959598
-5.91236
-2.91013
1.13143
1.15209
-0.266509
-0.219739
2.79333
3.11275
-2.90106
1.86199
1.86845
2.05832
5.21013
5.28066
4.67531
-0.0572245
-0.0689321
1.15722
1.01976
1.45612
3.17715
0.667694
4.23668
4.7936
-0.425171
-0.505523
2.51355
2.55829
0.606715
-0.164985
0.0220515
0.290897
2.53364
2.38761
1.58066
2.45002
3.92133
0.117349
-0.291321
-0.373825
-0.769926
0.584255
-0.573556
-1.76475
-3.40189
-1.48121
13.5429
4.13552
15.8235
-1.44095
21.2649
21.5753
-4.95155
2.25496
-0.405086
16.114
21.7524
15.9979
20.8341
14.1313
-5.37805
6.70853
16.0962
15.0864
-5.71179
-5.49872
15.3378
15.1994
2.70104
-1.05109
-4.72801
-4.5066
19.0782
14.3312
-6.05168
-3.74363
3.2369
15.9481
16.2403
-1.6694
-2.41672
-3.60718
5.37726
3.10287
2.97506
21.9211
21.7326
20.7628
21.1358
-2.56648
-2.02068
-0.345756
4.53009
-7.07555
16.9428
6.26988
16.9758
-3.60969
2.39863
1.86828
16.9251
3.5428
3.6881
20.5305
17.0686
17.1976
17.11
17.8176
20.5486
20.2921
-5.35679
-0.756582
15.3656
1.91933
3.59308
3.73125
3.34795
2.89979
-8.89957
24.8728
1.75569
21.5027
15.2777
15.234
-6.12632
-7.62386
-8.28752
4.16254
15.2413
15.3108
-5.62477
-3.69114
15.7949
15.9682
16.3497
20.8237
17.077
15.9694
6.47778
3.20847
3.63901
3.52465
4.14057
20.4743
-6.30589
-6.70204
-7.6605
-4.27252
15.5082
-3.31171
-3.56087
-2.79253
19.7718
20.3852
20.5364
-8.10713
3.35413
19.9164
20.3688
20.3342
20.7931
2.36952
1.63884
1.65751
1.48849
14.2868
13.8991
2.14702
-0.00104362
21.3031
21.2923
-3.27234
-2.73335
21.315
7.5377
0.541987
21.6732
21.1699
21.3023
21.3092
19.055
18.7308
19.6621
3.36352
3.37351
3.55802
20.0248
20.5407
20.7949
20.7384
20.6955
19.7368
18.7141
6.09214
-0.00027589
2.94179
2.54885
2.90379
2.77601
24.2988
22.1776
-3.10479
-3.49845
0.731676
0.848297
0.758623
4.8055
4.72599
-4.04741
-7.76103
-8.48682
-9.30052
11.6109
4.01772
3.98788
3.61286
-5.60411
-5.11596
-4.86385
-4.6005
15.9742
17.1389
18.0944
16.6343
-5.18656
-5.10207
-4.52731
14.7989
15
-3.68907
-4.26313
17.463
18.6909
15.8293
17.081
16.1944
15.9343
17.7167
2.95893
3.17892
1.94421
2.22663
13.2594
13.4017
21.5753
21.7507
21.8279
19.0845
0.192869
11.0982
11.3013
13.9031
-4.96513
20.1096
19.9137
20.7137
19.1084
18.5928
18.377
17.9275
20.2115
19.7602
19.9413
19.5075
-3.43016
17.7986
18.7133
18.6149
18.956
-1.98115
-1.45284
17.0029
16.6901
15.514
15.4439
3.83217
3.46226
4.00585
-3.56702
-3.25941
-4.49371
-4.8131
-0.938356
-1.71776
13.9406
13.7562
1.38918
1.37852
1.40638
0.805221
-0.749583
24.7641
6.39714
5.73888
5.49762
-5.50594
-5.11999
-5.7301
-5.56049
15.824
14.8899
15.2316
14.0953
1.48045
1.34348
1.48831
0.826045
0.869888
1.25722
0.86193
1.06625
0.974774
3.58451
3.37693
3.45333
3.85997
-5.4276
-5.45905
-6.29984
-6.198
4.27846
4.02387
3.93441
21.3147
21.6084
21.494
21.0051
4.12228
4.90424
4.35283
17.5067
24.7652
1.28507
24.687
10.6871
0.742039
0.712326
19.0151
18.9133
0.751592
0.780755
0.784759
1.24133
-1.65818
0.801115
-0.555861
17.6666
17.6153
2.26467
16.7005
-0.0673831
0.889761
-4.01101
-5.03953
-1.99142
-2.23484
17.4269
-3.17758
-3.54418
-0.398851
1.89823
-1.61581
-0.129689
0.199734
0.323785
0.386222
-1.70376
3.19675
3.27058
-2.53718
-2.46871
-2.64768
-0.179694
-0.406951
1.11756
1.16397
0.975244
0.920996
4.57655
17.6947
2.46095
2.47216
-0.0603037
1.03264
-0.420868
0.83889
0.911065
0.948431
24.6357
1.31916
1.25884
-2.9507
-2.14649
-2.05433
-2.06913
-6.29334
-4.75672
-0.379763
-0.355094
-0.361038
14.2794
13.4958
-2.61623
-2.3408
-2.47353
-1.55969
7.09381
-4.47238
-1.17777
-0.996726
-2.26766
-2.5291
24.3696
0.444778
-0.994326
14.0277
-0.278912
0.0475925
24.7572
18.4253
19.0742
2.10876
0.998088
1.06912
-1.23162
2.53472
6.2643
6.98418
21.665
21.5938
3.93336
4.43927
4.24592
0.928491
0.871881
17.489
1.17218
3.47807
3.70006
1.7862
1.58796
1.44399
2.29547
5.58467
4.98491
6.08462
5.48295
2.74382
0.39721
1.52761
-0.904496
1.45191
0.15679
1.04081
1.13211
-0.351747
-1.19614
-1.66563
-0.254431
-0.64259
-1.15008
9.13529
10.3574
19.0144
19.5056
19.8839
21.1854
0.725667
2.98575
2.77583
0.683326
1.32321
17.1104
16.4211
-3.72414
-3.98426
-3.28403
1.93707
0.847676
3.11619
3.47497
6.88442
3.74179
4.36632
-4.29638
-3.84323
1.02802
1.19761
1.00149
1.23089
-2.37716
12.5317
11.8091
11.0152
1.53272
1.63515
1.74907
1.7105
1.85099
0.874487
2.91598
3.10303
-3.00101
-2.93343
-2.63908
-1.89859
-2.10408
-2.3146
-1.23424
0.662922
-1.82214
12.5677
11.7283
10.588
17.6869
17.6546
4.89087
5.35023
19.1971
19.4353
-0.753503
-1.24798
-0.492135
14.8241
15.1293
8.45484
7.78136
22.0798
8.63846
-4.21234
5.88967
3.91193
4.95631
22.9553
4.24333
-12.0054
-3.70746
-12.1368
5.38037
22.4408
-8.0079
-6.80356
16.6605
-11.1275
-6.7154
-7.13438
2.06097
2.39351
3.89298
1.70492
1.16193
5.78437
-3.14724
-3.47312
-10.5192
4.95567
4.63063
-0.361018
-0.680203
-0.087166
1.29531
0.462204
0.0542537
17.1114
3.92183
4.54828
-4.7532
25.288
9.99959
9.70291
23.1241
-4.86594
6.59727
-6.95482
-10.1569
23.1166
3.06959
3.88435
3.03813
15.6233
-7.61961
-6.41382
4.1267
-2.42816
-1.77618
4.63906
0.557899
-3.20332
2.20044
10.5708
-6.39313
3.84392
17.9251
17.7802
2.17792
2.04618
-10.4086
4.45159
17.5625
-2.58943
-11.0279
5.54257
6.02559
6.45859
-34.2337
4.99585
4.77977
3.53488
13.4888
13.4391
5.32722
-1.81658
-2.03569
-2.49622
-32.2874
2.51266
-6.74956
-6.49566
22.8195
2.57946
2.12085
22.3261
22.2147
-7.98717
-7.91962
6.40274
-6.05025
16.1532
3.33656
4.44966
2.08493
-4.92485
15.6593
1.91223
1.63478
2.22487
-3.00141
-2.13367
-10.9871
25.5046
10.2594
-8.11347
6.00011
5.68395
10.3191
9.65443
-3.3809
-3.11071
-12.9921
-24.9735
-3.73478
-6.46779
-3.60654
14.7789
0.309006
-11.538
19.673
-17.6929
2.81482
-7.29756
-7.54098
1.86232
1.92545
-0.885465
13.6903
3.99174
-21.2624
-3.29922
-3.71087
3.43788
-5.18485
-0.00129646
-0.214736
-5.26015
-5.02122
5.18219
18.2
17.3123
4.82841
2.12126
7.01196
11.0057
11.7499
-1.03855
6.06985
-1.05033
-0.854156
-1.17565
3.7122
2.12227
1.99435
8.62102
9.43301
15.9871
22.1987
22.398
22.3454
-1.24268
4.41558
2.05425
15.845
15.8726
10.445
3.13892
9.15155
22.3141
12.7554
12.3807
-2.87828
2.05652
-3.31016
13.5316
13.6497
0.67954
3.13775
-9.4788
3.95986
-8.50853
4.77888
4.5252
16.3652
1.36008
-17.1046
2.85449
-8.67449
0.836455
1.64603
9.20401
12.5863
12.1878
6.95906
4.23095
2.57942
-10.7937
-10.8563
13.6202
3.10578
2.96061
2.82781
2.88239
3.49543
6.1099
-4.19082
-4.50285
-20.7566
-2.79726
-2.15163
-2.24496
6.56208
6.40735
4.96145
5.24467
-2.21916
-2.46809
-5.76222
8.35901
4.75289
4.67257
-5.11025
5.93749
-22.4725
13.1348
-9.44
-9.57194
-20.0938
3.72676
-4.55189
3.14882
2.64617
-9.8782
-7.81749
2.17772
14.0718
-17.0685
7.51261
7.91471
-9.77544
12.5691
-3.76138
25.2628
2.84246
3.42955
3.64766
3.20193
3.52666
4.14796
4.30855
2.62088
4.89784
-8.99611
-8.36666
5.3451
6.45666
6.40027
0.355106
5.11384
5.21743
1.80027
-5.65121
-6.31688
1.64747
2.00233
-0.615199
-5.64814
-5.66972
2.53689
2.82079
24.0321
-8.74448
-8.51671
-1.56675
21.6031
4.54472
4.57618
-7.99483
-7.70082
1.32557
1.67803
2.42789
14.2998
14.7022
-8.06936
-1.61046
2.63435
-9.38214
-9.27726
-9.18923
17.6734
17.5683
-2.8711
2.19336
-11.6817
-11.9095
5.33673
4.9254
-6.81722
-6.83274
-6.44698
12.0778
12.3467
-7.56417
-8.71633
4.73915
6.48204
-10.2651
-10.5326
19.3707
-7.988
-3.7994
-5.25882
4.71707
22.894
-3.48888
-3.96582
2.99588
2.54905
-5.00818
-7.42396
-6.94611
-7.11127
-6.41782
3.61437
3.7657
3.26253
-5.12309
-5.06272
15.7014
-5.6024
-5.27762
1.76927
-8.81499
-8.07129
-3.09993
-2.70244
2.79336
11.5741
11.715
-4.04576
-4.00214
3.53579
3.77886
3.56429
4.26956
4.75185
12.4839
5.62109
19.1691
-9.91977
-9.62032
-10.9745
-10.8116
-6.28464
-4.87564
-10.064
-9.15746
-0.633685
-0.664113
-0.793285
0.0631678
-1.27648
-2.15782
-2.31334
22.3042
16.5591
-5.10733
2.41317
2.37532
2.11918
14.7881
1.92847
1.46199
1.12243
1.81564
2.14258
2.21668
2.07777
2.64622
9.72979
9.75586
10.1268
10.6719
4.95068
4.88695
15.3002
2.10222
2.10339
1.95401
0.171751
2.85846
18.2832
-5.33548
-5.05531
16.42
16.6599
9.47963
-1.40726
-1.40536
-1.41409
4.83575
0.340862
0.276548
0.72306
1.78714
12.9845
12.7711
12.5462
-3.86555
-4.26623
-3.73853
4.18616
11.0972
4.40433
3.78512
-3.1548
21.9839
6.08842
6.03015
5.97484
-5.30118
20.567
-5.88983
13.9026
14.0877
24.5047
25.4122
1.02109
-1.08413
3.18923
-3.32642
-3.03757
3.39334
12.8343
3.28624
5.52532
-11.9178
4.97882
5.16131
4.85664
16.3066
2.11848
2.29093
2.07339
3.65617
4.37891
24.9484
14.6264
14.7789
-3.71046
-3.08286
-3.36114
19.5356
23.7992
2.29815
16.8526
17.2688
15.1543
14.5675
14.0364
13.9872
2.59281
16.6321
17.1224
-8.83385
25.1975
3.76643
4.02527
3.82305
3.97395
5.02717
4.47525
1.84751
1.49796
2.8115
3.12798
-11.4174
3.13713
2.98843
3.02139
0.3359
0.772872
6.6725
5.7152
6.81937
5.2144
18.3882
21.9132
0.825658
25.3552
-7.71285
1.90847
13.5
-6.4926
14.9953
15.2079
12.5896
12.5556
4.66143
4.68027
5.28808
5.216
5.24518
3.88332
3.8225
4.0887
5.5478
5.45311
22.6978
22.0975
25.5206
-0.936707
-9.96046
2.77839
2.99424
2.95174
3.40874
3.17275
13.6278
13.3696
1.32119
1.27682
-0.62667
4.10179
4.38785
4.35535
13.9597
1.64535
2.86186
2.83257
4.80497
4.67438
-5.63027
-4.90912
-4.87603
25.5201
15.5961
15.0951
16.4868
17.0654
5.17217
5.26279
20.8632
3.20741
3.01621
5.22403
-6.58724
-6.08594
-5.77883
10.7142
10.3706
10.8984
-9.63047
-9.84738
0.0564982
-5.3895
16.1344
15.8966
11.6926
11.5526
2.53641
2.47474
2.64456
2.75035
4.46869
4.40411
12.553
-5.16475
-6.26302
-5.98383
5.06519
4.94897
25.3277
15.3886
15.452
-5.36463
-5.8291
25.6903
19.6557
19.8018
22.4155
22.423
-5.06325
-5.30022
-4.06517
-3.67474
-5.0953
-7.04503
22.1737
-9.60384
-10.218
-9.73728
-5.93502
-6.54423
-4.93336
-4.55026
25.7157
25.6961
19.7964
19.7673
24.7363
18.7741
16.4682
15.9956
12.7775
-5.57527
23.1349
3.80404
3.57674
3.66993
2.38882
2.27128
2.32183
-0.7556
-0.23095
-0.481124
0.359889
4.80492
-7.42836
-6.83921
-7.24507
13.0092
12.6225
12.6532
0.586531
1.787
1.48248
2.90794
2.80179
2.56386
6.57467
3.45907
3.78521
3.8048
5.03955
4.99152
-6.15933
3.60257
3.07061
3.23527
25.7131
25.652
2.21153
2.37747
2.65855
2.50528
-8.12877
2.55065
2.55041
1.8836
4.11509
4.35844
4.37292
4.52483
0.0130372
0.224947
0.117515
-0.521448
-6.38962
-8.22185
-8.00085
-8.49004
-7.83886
18.1097
17.3046
0.598543
1.28964
3.76163
3.04553
-15.4561
7.97953
-6.9885
-7.55431
-4.34643
25.67
-9.27589
-7.33651
3.64829
4.19739
2.94661
3.46923
3.56464
18.9893
-3.26941
-2.90116
-2.4203
-7.18444
-7.60158
-8.35431
-9.13247
-9.12937
-8.63954
-6.35208
-6.94682
14.7152
14.0656
1.57878
1.64612
1.99722
25.6966
20.097
19.8229
11.7342
-5.94693
-5.6976
-5.09039
-4.86857
-5.29589
14.0742
13.709
13.271
-1.95886
-2.11013
-1.19026
-1.03117
-7.78609
-7.82715
-8.99974
-8.51754
22.1012
22.4655
21.9942
21.9876
-6.52608
-5.7379
-5.6136
-4.83792
15.2939
-9.47317
2.57664
2.70058
2.82489
2.54364
-1.41732
-1.0441
-1.27434
-5.14086
-7.54075
-6.6505
-6.70435
0.588136
0.875795
1.26989
4.19639
4.08007
3.76782
-1.33865
-1.73865
13.7252
14.0951
12.9431
13.0048
2.04443
1.79694
1.69767
1.38348
-8.4953
-9.69874
-9.39641
-0.286731
-0.831202
3.09368
3.452
2.97806
-5.01989
-5.25554
4.52447
4.49777
0.997319
1.64336
0.251268
1.07616
4.67696
4.7141
4.71644
-2.45334
-1.82905
-5.97937
-6.76239
-6.38889
-7.63671
13.3043
13.4623
0.767949
14.7571
14.8273
16.2278
3.90568
3.9315
3.69642
3.99637
17.8855
-2.64796
-1.93332
-1.70721
-1.01911
2.57734
2.22984
13.4544
13.6859
13.0265
13.4328
-1.85116
-1.40683
-2.01719
-7.18992
-7.30883
-7.86223
14.3313
14.3547
15.1823
15.0726
-2.57918
4.32439
13.3127
-5.39271
-5.70436
-4.15773
-4.91089
-24.5876
5.14663
-24.3547
-24.1712
2.06624
2.37289
1.97633
1.9044
4.78602
14.4364
14.6766
3.60907
3.53418
3.76989
0.406876
0.0622956
-7.79001
-7.3788
-7.92767
-7.1243
-7.93787
-6.89696
-6.29215
15.1663
5.03313
5.12154
-6.76655
-6.95238
13.7482
13.7256
13.5427
10.0426
-0.896871
4.08783
4.35264
4.38177
4.35034
1.1066
-6.57032
-6.734
-6.13187
0.797916
0.461563
0.288513
15.2786
15.4426
2.78013
2.34642
-6.62505
-5.87495
-6.19831
6.99641
7.11559
2.065
-8.95904
-8.72261
-8.17158
-9.70773
-10.0726
18.7919
18.4156
18.4084
-3.39334
12.708
12.5558
-1.29062
-1.27106
-0.307177
2.06191
1.41101
-6.03369
-6.35371
1.90013
1.90955
15.6791
15.3005
4.05666
3.99691
2.07576
2.15914
5.18758
5.1845
5.14328
3.30261
3.17077
3.11498
18.221
17.9623
0.472014
0.0996394
-0.268598
0.0565001
3.88531
15.502
15.7038
15.3617
21.846
21.9112
21.7088
22.1921
17.3554
15.0023
15.4143
15.1246
5.24097
5.24335
14.4507
14.5538
2.76957
2.93266
3.20344
7.6511
7.0781
-6.73116
-7.2928
-5.77721
-6.02387
16.5103
2.38135
2.54412
16.4462
16.1853
15.4734
15.8705
1.16088
1.26731
0.954588
-8.24446
-8.59376
-8.39174
5.38351
5.84382
5.5273
12.3468
12.1004
15.3464
15.3263
-2.84208
-2.6162
-2.41162
12.3732
-5.72746
-5.22219
-5.29196
3.45083
-4.97431
-5.68484
-5.4529
-5.75502
-2.11706
-2.79474
-1.67704
-1.86923
3.32565
-8.20388
-7.99002
-7.35748
-7.1812
2.55501
2.65354
2.86556
3.01473
3.04639
3.28454
2.96369
3.2825
3.33874
22.8116
14.8986
15.1041
-5.54977
-5.73763
19.5153
-8.79084
5.9017
5.54665
-0.573566
-0.383421
0.636778
0.255003
0.696026
-6.16226
-6.53299
-22.7137
-22.0288
12.4958
12.6024
12.9912
13.1847
4.46744
2.16243
2.26581
2.68963
-25.4754
12.8362
12.9712
12.2571
11.9926
-6.84375
-6.69833
-5.99567
-5.55367
3.3191
3.19258
3.35827
4.48416
-9.63164
-9.86546
-10.6224
-10.2862
-6.18915
-5.59796
-4.25051
4.52862
4.21659
5.17814
14.7688
14.3738
14.1564
13.7612
6.59588
6.79467
-2.56976
-1.56283
-0.995139
-0.917033
14.6408
15.5802
15.3501
-6.72464
-10.1051
-10.8335
15.8124
15.6928
4.4058
4.52429
4.59577
2.50192
2.54128
2.31693
-7.64719
-7.67122
-7.73994
13.0867
12.8976
13.0565
13.5419
22.1315
12.9091
13.537
12.9208
12.4639
-7.53244
-5.00441
-4.49943
-4.23528
-1.01074
-0.978675
0.0343914
0.117588
3.18295
2.63644
2.60634
2.74983
2.59581
-0.567614
0.52874
-0.0296887
16.5211
2.22575
2.21015
2.02522
-0.721433
-0.233738
-9.08042
-8.31033
-8.31562
-6.83257
-6.29852
-6.2116
5.0734
22.6657
4.58858
21.324
21.4519
5.36594
5.16134
5.20825
-7.11077
-7.46399
-7.42345
0.72932
-7.1023
-7.64705
-8.2013
16.8855
16.8747
4.41085
4.58549
4.26484
4.39532
1.91812
1.91298
21.4151
21.4476
3.99964
3.99389
3.90638
4.33303
2.36537
2.71628
15.943
2.16409
2.37468
2.37071
3.42626
3.80511
3.79107
-21.1491
-6.34752
-6.90239
-8.03892
-7.57263
15.7838
15.3997
15.3196
15.7447
-3.99078
-4.81411
-4.41251
-2.83969
-3.71131
-4.0909
-3.01581
-17.519
3.54875
3.58094
-2.72601
-2.26471
-4.56594
-5.12572
-4.14784
-3.58327
2.07262
2.26712
3.06428
3.57573
17.1583
13.0348
12.732
13.0073
-6.84531
-6.86327
-6.77001
-7.18854
-7.55639
-6.6809
-4.87879
-4.85451
-4.22848
-5.56751
-5.53566
-4.94223
-4.33796
12.8525
13.1791
1.23081
1.22223
-7.55732
-7.45134
-7.70461
-7.83719
1.04261
-6.74112
-6.29635
-6.77204
-6.98226
1.96213
2.25348
2.29627
22.2786
17.8966
-8.23134
-7.63964
-7.27509
-6.79675
6.20347
6.18592
-11.3228
-11.5743
6.01733
18.8955
2.87195
2.93134
3.97909
-8.76823
4.63063
4.52175
4.52323
-5.77867
-7.4127
16.3454
-2.36522
-2.85975
-3.12525
-3.05194
3.06193
3.15988
3.33942
21.0176
20.9876
25.1425
-0.299379
15.2984
2.53353
2.77449
1.83625
2.43692
-0.262798
0.107847
0.940838
0.734728
2.77629
3.05598
3.49952
3.11387
-7.61575
-6.9344
-6.2178
-6.72192
1.859
1.87116
2.98303
2.12879
-5.5035
-5.05792
-5.87644
-8.83819
22.8309
-2.91137
-6.78818
-6.66037
1.35165
1.38081
20.1581
-5.98515
2.55802
2.30231
2.42731
17.0822
5.80589
5.66023
6.07089
5.99958
3.45898
0.932581
0.581709
1.54787
1.78438
20.9931
21.2181
20.6154
20.9085
2.75751
2.69197
2.65478
2.90445
4.19444
4.12874
4.06504
4.13127
3.52649
3.73441
3.86297
3.58421
17.388
17.1867
16.143
16.2004
16.1025
15.957
-4.59457
-4.404
-6.39699
-5.94288
-1.17462
-1.02204
-1.53284
5.4341
-8.29647
-9.04841
-8.03041
-5.22027
-4.6032
-3.62332
-4.02682
-5.02332
-4.5804
-5.07571
-7.83424
2.03286
1.62826
24.9975
15.3085
15.0658
14.7318
14.5306
-4.85685
-4.29643
-4.41543
3.95654
-7.63806
-7.50716
-7.66601
-8.00658
-8.27463
1.99573
-8.39353
-8.47454
0.229136
-0.147692
-0.821579
-4.82869
-4.54538
-3.46281
-3.92484
-7.59383
-7.0931
-6.77779
8.19537
6.97776
-3.72055
-3.14442
-3.75501
24.8087
-3.62288
-3.41422
-0.136218
-0.323219
5.96563
6.49488
6.50004
6.49046
-5.25359
-4.50673
21.0592
21.0453
-0.00594241
0.601363
14.7861
14.8169
14.915
15.1134
-2.5492
-8.31629
-8.42915
6.03331
6.35675
5.47107
6.02723
3.9038
3.7499
3.75655
4.01895
3.70503
3.72193
3.5647
3.8152
3.48143
3.42163
3.73299
-8.74654
-8.49646
-7.53314
-7.83774
-9.44332
-9.45637
12.5929
-9.44016
-9.09924
-9.00791
9.85092
15.4653
15.5384
15.6219
3.88195
4.13208
3.85888
3.95922
4.08404
3.83617
-11.1317
-10.4683
2.82257
3.13445
2.70855
2.92818
1.07657
1.79875
1.84092
2.30176
14.4665
14.4854
15.1166
15.346
-5.96947
-5.50397
-6.0362
16.2653
15.8626
15.0838
15.3798
4.56861
4.62659
4.47092
18.3069
2.82009
3.03466
2.96607
2.90099
-15.9273
-16.1426
-20.6666
24.5849
-2.40653
24.5541
24.6496
24.6934
22.7182
-13.9987
17.5981
17.5898
17.6138
17.3077
24.5614
16.8121
24.75
24.7546
24.5499
24.5953
-10.0424
17.2168
17.0074
0.352731
23.817
-5.45364
16.9529
22.6659
22.7285
-10.2937
17.6329
3.14687
24.4148
17.317
17.3232
22.4568
-0.372113
-0.244343
16.003
16.0063
-15.3444
24.4773
1.70974
1.94638
0.289795
5.55624
6.37314
-6.31798
24.6231
17.3335
24.7577
24.7464
24.7464
-2.85324
-3.14923
24.3072
-6.09995
17.3687
17.3843
22.7748
17.4585
-3.26379
-16.2599
0.314268
0.439538
24.9398
-18.599
-19.083
16.9183
-22.0035
17.772
18.2189
18.122
4.75656
4.69765
24.4632
2.28197
1.18175
1.38907
-19.3532
17.0802
17.5391
24.6252
6.11316
23.6098
17.4184
25.485
18.0106
23.0128
2.57512
17.4669
19.929
20.0906
0.468084
6.19856
17.0951
17.4799
22.46
24.74
2.04522
17.613
25.4757
22.77
22.7961
24.4442
23.9452
23.934
23.3295
23.8384
23.3241
16.8001
16.8585
22.7704
21.735
23.7233
16.0979
0.605615
23.9141
11.1748
18.5113
-0.672226
19.5827
23.358
23.5716
23.6503
6.34552
16.9225
16.7374
-26.8342
25.2055
24.9114
17.4036
-0.0462104
0.14391
-20.2627
23.1114
-23.2548
-22.6043
17.7552
9.36844
10.218
-0.809369
8.55375
-0.0303026
-0.0820474
17.8579
17.0345
22.8162
1.54331
1.29997
22.8791
21.936
6.51875
16.6555
24.8817
19.5541
16.2122
17.2685
16.9997
-9.73629
-10.0685
-9.81907
24.7263
17.2237
-8.86558
-9.32936
6.76324
6.84926
-3.46162
-4.30554
-3.94056
3.11697
25.3669
25.216
3.81456
1.21754
19.535
19.4258
19.4741
25.4533
25.321
19.5377
19.4165
23.6393
25.3609
19.5445
19.445
25.1411
25.0517
22.9603
22.9277
7.39812
19.4932
19.2972
22.62
18.5529
18.4054
21.6798
24.4572
17.8967
18.1569
23.1572
23.1401
17.2465
24.0908
19.264
19.1537
1.4927
19.4813
3.15238
3.35252
3.44528
-12.4028
-3.9575
24.9257
-7.49944
18.7995
2.09149
17.4948
24.7304
23.483
23.3742
23.3391
24.4797
24.6955
0.890019
12.1932
11.2929
19.4524
19.6221
-0.816847
2.58151
-0.988778
-0.681207
24.4506
17.5498
0.146652
17.4753
17.9839
17.6972
24.1276
-22.315
7.46336
6.88119
19.1247
-3.88758
23.4705
23.4228
23.3512
24.4361
-2.37283
-2.37403
-2.11956
15.982
22.7178
-0.58029
-0.64967
3.63297
2.41999
-20.0834
15.8127
17.2468
2.51071
0.604655
0.442308
17.9744
1.60229
24.7438
24.7374
24.5904
22.8823
-23.505
22.267
22.1492
22.2513
22.3301
17.0954
18.8012
18.9061
-0.808367
-5.45496
22.5241
8.25774
3.26293
3.26585
16.2649
5.1144
5.15457
-3.02132
-3.32341
24.5631
-21.6201
-0.715779
-1.07316
17.69
17.7149
16.7129
16.3887
3.55556
3.64922
2.37155
1.93792
21.8571
-10.2798
-10.0627
2.84251
22.2777
22.2329
9.49468
22.8976
22.4944
17.5782
23.9405
18.0342
17.7005
-0.166715
23.0081
22.714
-16.5929
6.86907
17.9301
-16.6367
7.05823
7.63408
7.07265
-16.6269
3.71352
8.02964
-5.16186
16.5269
24.5753
22.668
17.6801
17.6107
-2.41893
22.6087
22.5359
18.2988
-5.36481
-0.801025
-0.787228
18.237
16.2141
16.0872
4.01418
3.87225
-12.8729
21.4595
21.3082
21.6791
21.1951
-0.469221
0.103946
3.36743
3.04537
0.319506
0.651287
2.51442
24.6884
24.6889
3.21196
24.1775
-6.45476
5.30302
5.28062
5.34857
-9.13417
-8.90654
-9.22877
-0.128923
-3.75889
-4.21686
2.96976
2.46181
2.53016
-0.260044
6.83403
-4.4035
-4.8629
24.2235
24.2534
-2.81775
16.9107
-9.72132
-9.50123
-10.8094
-2.51827
18.5503
18.6009
18.5677
11.561
24.5075
18.7117
18.4136
0.544083
0.606816
0.782007
16.8813
17.1398
24.5015
2.28562
18.5368
11.9445
20.5646
20.6719
20.2246
3.97977
4.174
-8.15106
-8.1299
-4.02714
-4.39759
17.5883
17.5765
1.278
18.4228
17.2555
24.4586
-1.20466
-1.90476
0.625764
-4.03974
0.533521
1.45995
1.31243
23.7055
17.9239
2.55986
2.43263
1.79469
2.27299
-2.30001
-2.21302
5.54941
5.26652
7.7714
8.52634
24.5438
0.157557
-0.410773
-2.77514
0.0690701
0.142324
0.14044
-0.430622
-0.542816
0.565237
0.478869
0.247735
-0.0545155
17.803
17.7582
17.0082
-3.15913
-4.03006
-4.24115
-0.697547
-0.629574
-4.05192
-9.84324
-10.3359
-0.906388
-0.840513
4.60501
4.51977
17.3449
19.7979
17.3982
17.5026
5.68689
-8.28521
-8.19819
-7.94671
3.60442
19.531
19.4582
-2.28009
-1.84708
17.922
23.8705
19.264
19.1787
25.1563
17.3121
17.4199
17.4117
0.0170233
0.0255492
17.9493
24.0143
23.9948
25.1395
25.0119
7.34231
8.616
-2.11774
-1.18809
-2.94053
2.13446
-6.55192
-6.13963
-4.3887
-3.8719
-4.32062
-1.23621
-1.10811
-5.92874
-6.19371
17.9078
17.8105
0.454431
0.542563
-0.771397
-6.0851
17.2121
25.07
16.5817
24.7107
18.8349
18.9476
18.9809
24.7571
-0.226831
-4.56812
-4.56445
-3.9864
-4.04513
4.77636
4.76918
-11.8673
-12.349
16.5383
8.9388
17.9932
19.0626
9.36753
18.9781
-8.71764
-0.228199
24.3706
24.197
-0.71282
-0.743861
17.3451
-7.50621
-7.70063
24.17
-3.60455
-2.85072
-4.13246
14.2653
14.1353
0.894852
22.5881
19.001
14.7938
14.9545
20.6714
20.7398
20.3594
3.36222
3.22619
3.23603
-1.56235
-0.152955
-0.572953
2.79111
2.61925
2.55113
3.67029
3.93443
16.9415
16.7596
17.0064
4.62307
3.58805
24.7242
0.802122
0.807412
0.845311
1.56154
-10.0273
19.0638
19.6361
19.0796
19.8875
4.39731
11.5504
11.6482
20.6521
20.2248
13.7594
7.47795
15.299
14.7975
14.3451
22.8117
22.7049
5.04414
4.85514
-3.82911
3.95021
3.35653
-4.43588
2.08105
22.5826
24.79
24.7948
1.75787
22.7395
1.96988
-21.3266
17.5035
17.5678
17.5066
20.4779
20.4023
6.73294
-7.75817
-7.65324
-8.02166
0.404503
22.4221
19.435
19.4257
2.00786
0.614636
3.0735
3.16903
13.2835
-2.24062
-3.57874
23.7237
23.6524
21.6184
21.7481
21.4806
-0.199341
23.5884
23.4917
0.789174
0.0408157
10.7485
22.585
22.5954
16.5588
0.845569
5.01547
4.87985
16.2663
3.51506
11.8473
19.5331
9.33995
10.2626
21.8737
-0.387455
19.5618
-3.27802
25.4483
11.8581
12.2166
24.6578
24.6742
24.7605
25.5119
19.5993
1.61713
22.4497
22.5623
-11.4019
16.526
1.70224
0.908534
1.03569
0.938516
1.08198
4.07569
3.45947
3.38179
5.50577
5.47013
5.4395
16.9282
17.0829
4.65306
4.63626
-7.98258
-7.96558
-7.8834
-2.16066
-2.02233
1.4586
1.51625
4.47301
9.21422
10.0932
9.58792
9.03803
1.83617
2.04836
-9.13853
0.823
0.350776
0.704986
0.68034
22.9979
5.25984
17.3107
16.7991
-0.0429766
17.3248
-10.9076
24.5249
4.19045
-4.21129
3.13062
3.27766
-6.07625
-5.93308
-5.64974
18.7202
14.7364
15.4473
16.1322
1.52535
1.25204
1.07424
22.3273
15.5528
15.3639
15.0978
15.1009
5.60668
2.86763
2.76863
-2.05556
15.8702
15.9494
16.0136
13.8828
13.9538
24.6929
0.597191
1.16194
0.878307
-10.5475
-10.6787
-5.53566
-4.59573
2.6866
2.8646
17.1782
16.6238
3.09973
3.17392
16.4478
15.8671
15.684
-3.27061
-2.85946
5.18274
5.17064
18.1576
18.1784
0.631003
-6.86988
-6.84077
1.72619
1.49787
1.90688
-9.26379
-9.42809
0.647671
0.595827
15.5925
15.7575
15.8274
-7.81078
-7.76879
-1.60253
-1.4306
-2.1871
-5.41702
-5.09007
-6.52235
-6.49737
17.2366
1.5686
1.4361
-11.975
4.62795
4.87214
18.4714
20.2959
19.8027
14.2074
14.6014
22.6731
1.40483
0.900996
0.839684
1.29175
1.36234
17.88
3.63752
-0.276077
-11.5203
14.3422
14.3617
-5.0438
-4.50634
23.8121
4.10864
7.74504
7.81952
4.3516
-1.91057
11.4837
11.1596
-11.6031
19.8417
19.4788
22.6685
15.6758
16.0581
4.90445
-8.76636
-8.96798
3.55637
14.5654
14.8051
14.7619
19.484
19.8555
20.0754
20.8965
20.9899
-5.16213
21.3081
21.3014
15.4267
16.2036
15.8254
24.8644
25.0238
3.09114
3.1017
3.11741
4.30719
3.95843
20.7348
21.207
20.9363
24.7515
-5.19495
3.26995
3.01261
2.32019
2.19857
17.4261
4.82978
3.94095
4.02291
-8.57615
-3.55771
-2.41264
-7.18616
-7.59203
-0.0383999
0.0487374
-4.34496
-3.77263
-8.4244
-8.01298
-8.8171
2.8044
14.4366
14.7442
-0.521638
-0.234836
-0.236224
16.224
16.1995
16.1311
-1.46935
-1.34175
-1.59695
-10.9318
-23.9117
4.67618
4.6991
-6.84508
-6.85939
4.83642
4.89475
16.6927
-9.07693
-9.61781
3.47204
3.40431
5.52681
5.44818
5.98561
6.50018
7.45404
16.1742
16.4605
-9.94768
16.6812
16.7019
1.49401
0.495702
0.941437
1.11706
0.414779
-2.41473
-2.72483
-2.66444
7.24303
8.00792
9.39174
8.85478
17.1033
17.4754
-1.29638
-1.4317
3.32114
3.26818
22.3113
24.7379
15.4348
15.2263
17.5159
-2.97246
-3.14343
-3.2797
1.7474
24.3916
16.9667
16.9418
2.89526
2.82802
21.2636
21.386
-8.75483
-8.52558
5.97473
5.73796
5.95377
16.6878
17.0606
4.09048
4.48443
15.9213
15.9084
22.1277
21.9776
-20.6566
0.651139
2.55551
2.71723
-3.21878
-5.2428
19.6146
-10.5389
4.80896
-3.90645
-4.03958
5.0443
5.34024
-8.036
-8.21298
-0.715967
-0.647966
-1.10561
2.55114
2.7833
-0.207054
0.412727
0.100322
19.8099
19.7306
25.6668
21.5162
21.6557
21.1612
21.596
1.68559
2.18029
1.80387
4.29407
4.34207
5.65131
-0.569086
-0.838278
-1.10958
4.71746
4.73356
13.8581
21.2291
2.44367
8.45803
7.94028
-9.52905
5.13474
3.52517
5.91724
-14.1811
7.93949
-2.23961
-1.79561
-1.34717
4.4146
4.9219
6.15064
4.85688
-2.83864
-19.4557
-1.98316
5.66552
5.8112
6.10277
6.94483
7.73651
-7.69114
3.16712
1.79271
3.64262
8.69116
3.7935
-0.671495
0.218481
6.64063
6.90834
3.78602
-7.54275
-13.4553
-8.24163
6.93835
-4.94138
-2.40202
8.27647
7.02816
0.310576
0.485582
-3.4169
-4.06752
-5.62321
-0.996375
-0.0259979
2.36879
1.54979
7.47272
7.73692
3.58979
3.29021
13.8975
1.97212
12.0241
5.71307
-3.33731
0.0977113
9.86719
4.09338
5.69081
2.83243
8.26955
14.7068
5.02751
7.71807
6.0172
2.96484
7.49003
4.12982
4.44309
5.91122
5.79743
-2.07829
-2.2444
-3.58003
5.71231
-6.65036
5.99423
-8.32631
-2.55905
7.84282
1.49131
11.9301
1.09122
0.505815
-11.2782
-10.074
-4.18882
-5.0261
3.33629
-0.0503197
-0.43524
2.12572
1.81285
5.94216
6.32371
0.983497
1.84682
9.2132
0.748861
-0.553161
-0.00350631
-7.32994
22.1493
3.10991
-28.0283
-10.2331
-14.4665
3.39767
-6.55355
-7.69363
11.2361
10.1183
-1.23978
10.4529
-19.5319
-3.56457
3.12802
3.12814
1.2395
0.935418
-6.49382
1.24662
2.4062
-3.75854
6.57854
0.969047
0.262151
-3.9709
15.0747
1.69722
10.2946
5.93589
5.79914
-12.5229
-4.05768
5.8851
-12.1809
-10.1706
13.5047
13.7866
11.0908
12.2751
-9.76715
0.0802068
2.59932
2.04343
5.81334
5.43801
8.93472
8.32944
8.71368
3.17212
12.241
5.57454
-2.74001
0.80668
0.926273
0.066095
-10.3642
6.84056
-2.22379
4.20372
4.3926
-8.1787
-11.0678
22.8515
-10.4597
-11.2459
16.5307
7.69719
4.42619
2.68504
-4.90255
-4.41964
0.954932
8.92395
3.18678
-11.2246
8.03758
3.22578
-2.10603
-2.20725
10.2587
9.94198
-8.75894
3.12402
-6.05198
-6.03187
2.93618
3.4403
-10.3035
9.18312
1.20522
1.73137
11.1241
11.1955
6.06942
6.34344
-3.06439
-2.76079
1.15005
0.665379
0.37809
14.6096
4.44158
16.1733
16.1606
16.7481
-4.72213
-5.28409
-6.46062
6.48797
-2.05871
10.6186
-2.21346
-1.62684
-2.79558
-0.552651
-14.0635
3.52606
7.40818
8.83658
8.58595
13.1916
12.3959
13.0242
7.74337
7.69591
-2.75593
5.4779
11.8327
11.2002
-4.90255
-28.1149
8.41362
-12.7803
-8.97582
3.19222
3.75922
1.20247
0.884617
-9.11589
7.20806
-1.38887
-1.3635
11.5161
10.8085
2.56527
-1.68364
-2.19706
3.68801
3.48141
-9.98332
-9.33206
2.61461
1.95117
9.50353
9.26952
9.02385
4.16251
4.71822
7.55459
6.47122
5.72301
7.19334
6.97946
6.36199
6.29833
6.59827
7.76256
3.56647
3.36344
3.34949
-3.16496
11.7047
6.36489
6.67644
8.1311
-7.09716
15.702
1.48966
1.73531
-11.2319
-0.311548
0.0132541
-0.579142
-9.67029
-9.43682
-5.36545
3.34689
2.76674
-0.809987
-0.0584866
14.2291
7.41685
2.82752
3.48221
-0.0944299
-17.8124
7.84764
9.99548
9.94636
7.32177
7.23716
-0.26717
0.55007
0.0609046
0.85342
1.18738
4.50686
12.1263
11.3163
4.45606
13.9365
14.3711
14.3067
10.5563
10.6142
4.85269
10.7292
4.43025
4.71738
5.37827
5.87404
6.85379
6.04714
2.84271
3.34129
9.11267
9.90344
-4.03776
2.42888
2.23105
2.28213
4.98571
-11.2929
-5.9336
5.68044
6.39384
5.91726
5.95928
5.69671
6.53369
10.0606
10.0077
22.0243
22.0553
22.2583
10.0453
10.5785
10.1502
9.08184
8.1472
10.026
10.8325
1.23171
-10.8675
-11.2277
-6.55907
-6.48059
-0.83712
-1.90649
15.532
4.16638