/*--------------------------------*- C++ -*----------------------------------*\
  =========                 |
  \\      /  F ield         | OpenFOAM: The Open Source CFD Toolbox
   \\    /   O peration     | Website:  https://openfoam.org
    \\  /    A nd           | Version:  6
     \\/     M anipulation  |
\*---------------------------------------------------------------------------*/
FoamFile
{
    version     2.0;
    format      ascii;
    class       surfaceScalarField;
    location    "200";
    object      phi;
}
// * * * * * * * * * * * * * * * * * * * * * * * * * * * * * * * * * * * * * //

dimensions      [0 3 -1 0 0 0 0];

internalField   nonuniform List<scalar> 
44611
(
1.51927
-2.14013
0.620862
1.51927
1.44612
-1.44612
1.93952
-0.493395
-1.31915
-0.707638
2.02679
-1.31915
-0.0917129
-2.17013
2.08471
-0.565448
1.29183
-1.29183
0.180646
1.85446
-2.1763
0.730176
2.37681
-0.340681
0.413134
-1.73228
-0.795034
-1.19797
0.795034
1.28968
-0.551424
-1.33483
0.551424
0.740402
-0.594432
-0.824376
0.824376
-1.17128
1.35192
-0.0103866
1.28966
-1.27928
-0.136002
-1.85975
1.99575
1.51829
-0.212676
-1.30562
1.21992
-1.21992
-1.09717
1.09717
-1.51134
1.51134
-1.19382
1.19382
1.50046
0.0178376
-1.92051
0.409172
-0.920385
-0.786136
1.70652
-1.62802
-1.26226
1.26226
0.125412
-1.42386
1.29845
-1.49251
1.4925
-1.27729
-0.218528
1.49581
-1.3662
1.3662
1.65451
-0.143168
-0.460683
1.51011
-1.04942
1.7214
-0.501485
1.3235
-0.21288
-1.11062
-0.699152
1.09238
-0.393224
1.18348
-1.45805
0.274567
-0.88105
0.88105
-1.14574
1.03946
0.106274
0.950951
-0.950952
1.18918
-1.32518
-2.27613
0.809307
-0.809306
1.01231
-1.22499
1.82162
-2.0343
-1.6008
-0.619815
-0.816003
-0.784792
-0.899168
0.899167
-1.04035
1.02996
1.92913
0.09381
-1.46001
0.103945
-0.298687
1.21489
1.16192
1.73228
0.165091
0.529794
-1.21425
2.03025
-1.46002
-0.98194
-0.476108
1.29428
-1.29428
0.897741
-0.415428
-0.482315
1.33024
-1.1457
-0.184539
-0.793479
-0.651102
1.44458
-5.84034e-05
-0.0808611
0.0809187
1.67795
-0.388284
-1.69334
-0.166405
-0.355083
0.906429
-0.551346
-0.0398319
0.0473353
-0.00750378
-0.134743
-0.609616
0.744359
-1.15464
0.455484
0.0102446
0.0625878
-0.0728327
-0.0347264
0.00758293
0.0271434
0.856178
0.212445
-1.06862
0.000719911
-0.00072113
1.47494
0.524594
0.240457
1.23448
0.798743
0.879208
-0.025273
-0.00945381
1.23248
-0.504616
-0.727863
0.917539
0.314941
-1.06849
-0.624858
-0.262765
-0.805722
-0.979942
-0.472659
-0.907221
1.37988
0.00506166
-0.0448941
-0.00714515
0.0348358
-0.0276901
-0.727288
0.852698
-0.648324
-0.282071
0.930395
-1.16944
0.950913
-0.000252594
0.000253201
0.0908419
0.815586
0.988582
0.64918
0.862459
0.467781
1.15906
-0.296598
-0.0746156
0.632218
-0.557602
-0.364959
-0.478299
0.843256
0.408273
-0.744013
0.33574
1.14028
0.859719
-0.746704
0.753133
-0.0064281
-0.790068
1.06463
-0.889519
0.199489
0.690029
-0.89527
-1.11273
-0.842642
-1.43349
1.10541
0.336324
-1.44173
0.927213
-0.0710355
-0.199925
0.746374
-0.546451
-0.953873
-1.08042
-1.42653
-0.845503
-1.11312
-1.60641
0.760905
-0.867739
1.27691
-0.344484
0.806648
-0.462165
-0.979016
0.173293
-0.41933
-0.535595
0.954923
-1.30789
0.888561
-0.262586
0.826837
-0.564251
-0.82979
-0.0774316
0.749406
-0.617466
0.829911
-0.892641
0.593954
0.0496392
-0.0393945
0.038359
-0.0455044
0.595158
-0.808038
0.846575
-0.681484
-1.48952
0.680461
-0.790697
0.110236
0.809061
-0.705116
0.900555
-0.0913274
-0.809228
-1.39922
0.000309108
-0.000309333
0.000308732
1.06248
-1.06247
1.07174
-1.07175
-1.1543
1.36192
-0.207618
0.628503
-1.07645
0.44795
-0.294583
1.36633
-0.899335
0.581316
0.318019
-0.929257
0.0299201
0.822881
-0.618164
-0.204718
0.0294025
0.338431
-1.1285
-1.25111
1.25111
-0.440439
1.35798
-0.104809
-0.46558
0.00744864
0.458131
-0.154328
-0.311252
-0.643009
0.488679
0.370418
1.0196
1.40238
0.616239
-0.0197305
0.970644
-0.0774553
0.930152
-1.24536
0.360447
-0.838747
-0.282561
-0.934588
0.333992
0.600597
-1.11998
0.185394
0.0904326
-0.799086
-0.96389
-0.315387
-1.45729
-0.727109
-0.231961
1.72446
1.06649
-1.2019
1.30818
-0.0617668
-0.682248
-1.049
1.69093
-0.641934
0.0845279
-1.40923
1.35381
1.97467
-0.855484
0.855485
-1.63433
0.778852
-0.00686078
0.000816515
0.00604432
-0.0225083
0.0295324
-0.00702427
-0.00686757
0.0053786
0.00148893
0.0506785
-0.0578985
0.00722001
-0.00349509
-0.00526942
0.00876435
0.00541467
-0.00890977
-0.038227
-0.00406415
0.042291
-0.594021
0.295369
0.298652
-0.0641497
0.0514886
0.0126611
0.0151608
-0.0664089
0.0512476
-0.00372533
0.00914
-0.00519122
-0.000658108
0.00584937
0.0202963
-0.00141303
-0.0188835
-0.000877769
-0.00694783
0.00782579
0.00623342
0.004028
-0.0102614
-0.00246018
-0.00481704
0.00727725
0.0049881
-0.0046536
-0.000334487
0.00830131
-0.00144168
-0.00685961
0.0120068
0.00253361
-0.0145402
0.0252869
-0.0132801
-0.000433181
-0.00559977
0.00603295
0.00530379
-0.00573696
0.63457
-0.435082
0.132398
-0.035981
-0.0964175
-0.0078592
-0.00649451
0.0143536
0.0151165
-0.0213276
0.00621115
0.000246438
-0.000246995
-0.00693518
0.00362603
0.00330921
0.014826
-0.00280567
-0.0120202
-0.0254394
0.00907042
0.016369
-0.0860822
0.0173018
0.0687804
0.00291616
-0.00804376
0.00512766
-0.00827928
0.00588464
0.00239468
0.120986
-0.0317493
-0.0892368
0.0035304
0.0466661
-0.0501966
0.0274806
-0.0217908
-0.0056898
-0.000130135
-0.0171891
0.0173192
-0.0573364
0.0132158
0.0441207
-0.039907
0.0530707
-0.0131638
0.00317999
-0.00891532
0.00573533
-0.00739963
-0.00151028
-0.00603498
-0.00853388
0.0145688
-0.0113045
-0.0413667
0.0448969
0.0423869
-0.0837538
-0.00337559
0.00972586
-0.00635027
0.0292393
0.0110691
-0.0403084
0.00968685
-0.00359015
-0.00609668
0.00130234
-0.00130532
0.0070023
-0.0252893
0.0182871
-0.00631808
0.00457666
0.00174145
0.0501214
-0.0379535
-0.0121678
0.0322689
0.0304441
-0.0627129
0.0561902
-0.0239213
-0.00489459
-0.00142347
-0.0179577
0.0209353
-0.00297768
-0.0045824
-0.0133753
0.003387
-0.011921
-0.00597751
0.00619558
-0.000218035
0.00421691
-0.00495793
0.00074106
-0.0255547
0.0407155
0.0217807
0.0122734
0.00802269
0.0198563
-0.00974689
0.0137879
-0.00404102
0.305913
-0.259742
-0.0461724
-0.007025
0.00308124
0.00394378
-0.625194
0.343123
-0.0197009
0.0151185
0.0854528
0.463918
-0.549372
0.0567493
-0.0706682
0.013919
-0.000587164
0.00639195
0.00586741
-0.0122593
-0.000452816
0.000453016
-0.0570513
0.473739
-0.416687
0.015295
-0.00332573
-0.0119694
0.0092137
-0.00393819
-0.00527551
0.00621239
0.00208891
0.00601355
-0.0131611
0.0071474
0.0132312
-0.0123421
-0.000889048
0.0110651
0.00216599
-0.0227819
0.0514535
-0.0286716
0.00470969
0.00450404
-0.0029539
-0.00407108
-0.00259919
-0.0110924
0.0136916
0.0021234
0.00846719
-0.0105906
-0.00391463
0.0058049
-0.00189022
-0.0072446
0.00332999
0.00640617
-0.000601252
0.00202635
0.0151347
-0.0171612
-0.00918737
-0.0305841
0.0397716
-0.00980043
-0.0371452
0.0469456
-0.430511
0.356115
0.0743958
-0.0333997
-0.00650724
0.0201839
0.0292891
-0.049473
0.0174079
-0.00283935
-0.00882394
0.00938548
-0.000561385
-0.00864458
-0.000179324
0.0179793
-0.00691425
-0.0280504
0.0216145
0.00643601
-0.00162885
0.00698587
-0.005357
-0.0117961
0.0467902
-0.0349941
0.0383257
0.0312689
0.0155211
-0.00312897
0.0266837
-0.0235541
0.0176508
-0.0156244
0.014522
-0.00877275
0.0179578
-0.00918499
0.00233567
-0.016995
0.0146593
-0.0101936
-0.00899869
0.0191921
0.010003
0.00740493
-0.000190541
-0.00159375
-0.0261638
0.0206823
0.00548146
-0.0247761
0.0242464
0.000529715
-0.0509398
0.0449286
-0.00230829
-0.00462684
-0.00472876
0.00367387
0.00105494
-0.027417
-0.566604
0.0432074
0.032588
-0.0757949
-0.0155386
0.00779364
0.00774486
0.0123989
-0.00833887
-0.00406016
-0.0397968
-0.00840241
0.0482001
0.318515
-0.519647
0.201132
-0.00503793
-0.00626668
-0.0905584
0.226688
-0.13613
-0.914453
0.304836
-0.00600219
0.00765893
-0.0016568
-0.00929276
0.00787966
0.0359089
-0.00107303
0.0277568
0.00815198
0.0256106
0.00916864
0.0117667
0.0115043
0.00137342
0.0103933
4.62507e-05
-0.0253194
-0.0188374
0.00831183
-0.0179654
0.00965341
-0.0167549
-0.00208257
-0.00844312
-0.0246902
-0.00147941
0.0261693
-0.0406992
0.0130091
-0.246384
-0.184127
-0.0236537
-0.0404959
0.0249899
0.0280808
0.0304714
-0.391047
0.489538
-0.098492
-0.507211
0.500783
0.000572199
-0.000572605
-0.00712672
0.00253978
0.00458696
-0.0487972
0.00900049
0.00501942
0.0224613
-0.430841
-0.483611
0.164484
-0.595325
-0.548917
0.0653047
0.00012439
0.0291149
0.022992
-0.0262561
0.00326414
0.0223805
-0.0326102
0.0102299
-0.00118133
-0.0111608
-0.00995408
-0.00670551
-0.00445527
0.0596111
-0.14327
0.0836589
0.246665
0.219529
-0.466195
0.342989
-0.096324
0.55527
-0.00746314
0.0132546
-0.00579105
-0.0115435
0.0101796
0.0013641
-0.0190065
0.0234344
-0.0111658
-0.0502408
0.0614063
0.0377574
0.000601652
0.0265915
-0.0182202
0.0195842
0.00706662
-0.00846627
0.0072047
0.000932922
-0.00813763
-0.00157043
0.00747819
-0.00590776
-0.0210964
-0.00434238
-0.00308497
0.0182019
0.0273066
0.0230003
-0.0503067
0.0380829
-0.0293357
-0.00874737
0.0319061
-0.0319648
0.0345029
-0.0294415
0.00604278
-0.0023861
-0.00365666
0.510029
0.124541
0.582571
-0.0725425
0.885817
-0.418036
0.0867309
-0.0065894
0.00288514
0.00370426
-0.00662835
-0.000232413
-0.0111682
0.00676941
0.00439862
0.000974365
-0.0121426
0.0134464
-0.0066771
0.00548541
0.0206056
-0.026091
0.00925726
0.00326516
-0.0125224
0.0070093
-0.00526519
-0.00174401
0.00248308
-0.00668423
0.00420122
0.000937948
-0.00566666
0.00338259
-0.0112421
-0.00964937
-0.0069908
0.01664
0.00645154
-0.0161011
0.00847149
-0.0154623
-0.0220393
0.0125853
-0.00571747
0.0323088
-0.0092814
0.0126683
-0.00735862
0.012844
0.0255123
-0.483002
0.540336
-0.0573337
-0.0231619
-0.00385174
0.0270139
0.00138121
0.0192245
0.0153728
0.0143189
-0.0412115
0.0268917
-0.0163304
0.0306489
0.000178619
-0.00523683
0.00505825
0.00598415
0.000422033
0.00616278
-0.00481481
0.758196
0.010288
-0.768484
-0.051033
-0.51245
0.193892
0.318557
0.0233524
-0.000972117
-0.0011486
-0.0206423
0.0222036
-0.0425738
0.0725094
-0.0299355
0.44326
-0.548585
0.105325
-0.0397175
-0.0309591
0.0706767
-0.0753006
0.0355829
-0.35604
0.589617
-0.233576
-0.574355
0.554625
-0.0611084
0.164403
-0.103295
0.140021
0.165894
0.000840407
-0.0018089
0.000968241
0.255831
0.115984
-0.371816
0.263279
0.0156183
-0.0157485
0.00748455
0.0115874
-0.0190718
-0.0100182
-0.00898825
-0.03371
0.0239094
-0.0175376
0.0513911
-0.0338539
-0.886205
-0.187999
1.0742
0.571265
0.373891
-0.945156
0.470261
0.287583
-0.757844
0.1808
0.289461
-0.506042
0.616278
-0.464603
0.629087
-0.306285
0.391737
-0.44009
0.362633
0.754369
0.00392722
0.0108986
-0.00994077
0.000193782
0.0301532
-0.0190841
0.00764485
0.0323694
0.00227975
0.0101191
-0.0088547
-0.000402953
0.00925763
-0.00657501
0.0097162
0.505556
-0.0416381
-0.0902744
0.447628
-0.357354
0.415281
-0.000464639
0.000793803
-0.000327509
-3.52334e-05
0.00119505
-0.00115949
0.0593491
-0.767207
0.707857
0.00193769
-0.0012295
-0.000708119
0.163459
-0.103848
-0.0393269
1.17961
0.285437
-0.962679
0.677242
-6.84953e-05
0.000315057
-0.000134932
6.6595e-05
-0.753819
0.339184
0.414635
0.573019
-0.859497
0.494498
0.364999
0.0671433
-0.0204772
-0.268253
0.498317
-0.230065
-1.22379
0.572687
0.000717232
-0.000718265
-0.696494
0.669077
-0.00834946
0.00345488
0.7781
-2.02921
0.749423
-0.758171
0.00874901
-0.552041
1.61452
-0.599782
0.684117
-0.0843348
0.386246
0.257098
-0.643345
0.829505
0.000573703
-0.000577256
-0.241571
0.771922
-0.530349
-0.724574
-0.4669
0.800894
-0.623655
0.026938
-0.0432684
-0.869529
-0.354259
-1.28092
0.81876
0.536566
-0.611181
-1.02999
0.465741
0.0480585
0.461473
0.872314
-1.33378
-0.824184
1.28566
-1.37623
-0.763904
0.348477
-0.678393
-0.085513
-0.868624
0.00912661
-0.809274
1.33926
-0.814669
0.184962
0.396364
-0.00020342
0.00136577
-0.00116318
-0.124411
0.365127
0.214901
-0.893294
-0.365205
0.152243
0.212961
-1.07425
0.624331
0.12509
-0.633458
0.00147635
-0.00150032
2.37538e-05
-0.955207
0.0299232
0.0611924
0.010996
-0.458418
0.644175
-0.185758
-0.340058
1.47364
-1.8137
-1.00541
-0.107709
0.920883
0.523701
-0.0182738
-0.0923715
0.0740977
0.820889
-0.502374
0.36247
-1.69376
1.39918
0.892434
-0.404765
0.210918
0.193847
-0.983972
1.83946
-0.738387
0.536779
0.201609
-0.261924
-0.476462
-0.205119
1.23948
-1.4446
0.000812264
-0.000240649
-0.306344
0.776986
0.0470648
-1.31826
0.198279
-0.519515
-0.000481665
0.000485111
-0.0133927
-0.609764
1.54129
-0.179371
0.612032
0.0744824
0.0465036
-0.0267741
0.0572182
0.241263
0.114852
-0.163502
0.0124376
0.607075
-0.596788
-0.556042
-0.282706
0.901493
-0.418987
0.000467184
0.000104787
0.646741
0.0331994
-0.479251
-0.589318
-0.034337
-0.900382
0.311063
-0.535383
0.709213
-0.43442
0.549271
-0.717126
-0.26671
0.477629
-1.34602
-1.48919
0.649655
-1.04411
0.0565216
-0.000331443
-0.253697
0.832055
-0.578357
0.0407004
-0.137958
0.0838591
0.0540984
-0.0559972
-0.081961
-1.19055
1.05218
0.13837
0.228224
-1.27233
0.82882
-0.361733
0.0305135
0.23193
-0.262443
-0.0876185
0.118132
-0.00794669
0.0233195
0.0175656
0.017375
0.00592506
-0.393728
-0.56895
-0.618994
0.0933785
-1.5534
-0.0225037
-0.0618985
0.772179
-1.52916
0.756981
-0.874255
1.64643
-0.751059
0.21228
0.161667
1.22816
1.5534
0.171065
0.0450407
-0.0303877
-0.0146532
0.00708685
1.6431
-1.02686
0.915236
-0.282323
0.00557256
-0.0979436
-0.0758405
0.0814134
0.873361
0.200843
0.688822
-1.06214
0.644101
-0.373316
-0.937216
0.478814
-0.649686
0.0379619
0.809884
0.527561
-0.574508
-0.890032
0.315524
-1.08042
0.534098
-0.0474151
0.121513
0.033998
0.15213
-0.00080544
0.00122483
-0.000420079
-0.00100882
-0.144265
-0.572861
-0.39065
0.0196395
1.58842
1.08694
-0.00149742
-0.00320789
0.00470546
-0.00459933
0.00310197
0.00959667
-0.00596512
-0.00363154
0.00261507
0.00698159
-0.00438058
0.00812329
-0.00374269
0.00341156
0.00250519
-0.00591674
-0.000254869
0.00843016
-0.00817529
0.0058274
-0.00685527
0.00102787
-0.00350305
-0.00298272
0.00648577
0.000897967
-0.00588565
0.00498768
-0.00466493
0.00298812
0.00167685
0.00191721
0.00723576
-0.00915297
-0.00126363
0.00876356
-0.00749988
-0.0092022
0.00403472
0.00516748
-0.00138794
0.00871279
-0.00732485
-0.0133793
0.0125004
0.000878842
-0.00725909
0.00452998
0.00272922
0.00523726
-0.0058225
0.000585111
-0.0129556
0.0119462
0.00100947
-0.00429008
0.00413723
0.00015289
0.00619892
-0.00746253
-0.00817195
0.000951096
0.00722088
-0.00442373
-0.00374823
-0.00679448
0.0023859
0.00440858
0.00102693
-0.0078214
0.00592546
0.00254298
-0.00846844
-0.0066941
0.00127054
0.00542356
-0.00151681
-0.0051773
-0.00106484
0.00606226
-0.00499742
0.00939041
-0.00932581
-6.45921e-05
0.00788361
0.0015068
-0.00412308
-0.00266383
0.00678696
-0.00418425
0.00508221
8.83697e-05
-0.00504278
0.00495442
0.00191897
0.00436812
-0.00628709
-0.00665637
0.00677833
-0.000121955
-0.0030689
-0.00358748
0.0059248
-0.0074416
-0.0102358
0.00204268
0.00819315
-0.00326738
-0.00696844
0.000253547
-0.00456958
0.00431606
0.00429662
0.000345122
-0.00464174
0.00280792
0.0014887
-0.00648659
0.00986876
-0.00218656
0.00339958
-0.00121308
-0.00350374
-0.00240239
0.00590616
0.00218365
-0.00568738
0.00108949
-0.00361788
0.00252836
0.0299233
-0.0705257
0.0406032
0.0249237
-0.00647666
-0.018447
0.00141276
-0.00716608
0.00575332
0.00677338
0.00129649
-0.00806986
0.00509211
-0.0031221
-0.00197004
-0.00756561
-0.00128589
0.00885148
-0.0117602
0.00906723
0.002693
0.00492878
-0.0106582
0.00572939
-0.00478046
0.00202895
0.00275229
0.0136279
-0.0083878
-0.00524006
-0.00203693
0.0156649
0.00125408
0.00753062
-0.0087847
0.00343133
0.00715838
-0.0105897
-0.00635841
-0.00255769
0.0089161
0.00514598
-0.00980146
0.00465551
0.00744977
-0.00727983
-0.00016994
0.00242143
-0.00890344
0.00648201
0.011814
-0.0226628
0.0108487
0.00470656
-0.00751713
0.0028106
-0.00555494
-0.00136106
0.00691601
0.0100928
-0.00562751
-0.0044653
-0.00536351
-0.00113514
0.00649865
-0.00514822
8.92617e-05
0.00505896
0.0123614
-0.326108
0.313746
0.194447
-0.182085
0.00693877
-0.00134801
-0.00559078
-0.000171782
-0.00754835
0.00772016
0.00118923
-0.00301473
0.00182552
-0.00851266
0.00468957
0.00382309
0.00170191
0.00495312
-0.00665501
-0.00949448
-0.00388488
-0.00325184
-0.00624268
0.0117761
0.0131476
0.00862621
-0.00862621
-0.00397224
-0.00345159
0.00742386
-0.00941399
-0.00329396
0.012708
0.00560444
-0.00138899
-0.00421545
0.00539844
-0.0066025
0.00120408
0.00621496
-0.0040591
0.00802561
-0.00396651
-0.0081279
0.00159292
0.00653498
-0.00308652
-0.00504138
-0.00691974
0.00826386
-0.00826386
-0.0027677
-0.00289517
0.00566287
-0.00757192
0.00663453
0.000937394
-0.00184095
-0.00573097
-0.00484033
0.0067288
-0.00188842
-0.00505333
0.00388373
0.0011696
0.00244936
-0.00750269
-0.0060807
-0.00163144
0.00771207
-0.0114748
0.00414042
0.00733424
-0.00869559
0.00872082
-2.52306e-05
-0.00533773
-0.00335786
0.000541598
0.0151369
-0.0156785
-0.0190602
0.0188841
0.000176129
0.00490381
8.43071e-05
0.00632578
0.00168207
-0.00800786
0.00717813
0.0070478
-0.0142259
0.0315754
-0.0424567
0.0108812
-0.0086609
0.00945132
-0.000790416
-0.00521998
-0.0108431
0.0160639
0.00745845
-0.00410328
-0.00335517
0.000510202
0.00694825
-0.00339825
-0.00289284
0.00629111
-0.00744266
0.00986409
-0.011984
0.0056256
-0.00251862
0.00624992
-0.0037313
-0.000719564
0.00131577
-0.000596226
0.001618
-0.00599578
0.00437776
-0.00921525
0.00246736
0.00674789
0.0110305
-0.00344812
-0.00758234
0.00447811
0.00655235
-0.00522702
0.00362453
0.00160245
-0.00225713
0.00444078
-0.00904117
0.000137741
-0.00560984
0.00302892
0.00470955
-0.00773846
0.0046366
0.00384181
-0.00847841
-0.00359627
0.00923017
-0.0056339
0.00718495
-0.0090259
-0.00762283
0.00625674
0.00136609
-0.00326912
-0.00133006
0.00727227
-0.00191478
-0.00535749
0.0103604
-0.0109248
0.000564427
-0.00130154
0.00103914
0.000262491
0.00555905
0.00341481
-0.00897387
-0.00330214
0.0139065
-0.0106043
-0.0076021
0.00317831
-0.00236484
-0.0109836
-0.00442847
0.0154121
0.0120036
-0.0229872
0.0386182
0.0128705
-0.00930208
0.00805228
0.00124981
0.00720744
-0.000258631
-0.00694881
0.00729074
0.0047085
-0.0119992
0.0221074
-0.0684314
0.0463246
0.0501367
-0.0280295
-0.00529335
0.0063216
-0.00102825
-0.0246968
-0.0105045
0.0352013
0.0745886
-0.00854563
-0.0660425
-0.00719078
0.00754383
-0.000353047
0.0333246
-0.0158838
-0.0174407
0.0350562
-0.0017316
-0.00317759
0.00633906
-0.00316146
0.00103008
0.01021
-0.0112398
-0.00145785
-0.00166595
0.00312383
-4.13795e-05
0.00722237
-0.00718091
-0.00859949
0.0122194
-0.00361993
0.0146292
-0.00957845
-0.00505071
-0.00390565
-0.00211901
0.00602468
0.00129545
-0.0047566
0.00346119
0.00447771
0.00534525
-0.00982295
0.00675121
-0.00114594
-0.00560527
0.0117848
-0.0076391
-0.00414566
0.00961204
0.00217272
0.00463426
0.0039032
-0.00853746
0.00772496
-0.00179951
-0.00196113
-0.00547426
0.0074354
0.00305213
-0.00735651
0.00430438
0.0104671
-0.00785207
0.00970261
-0.00773575
-0.00196686
-0.00548763
0.000296431
0.00641161
-0.00428786
-0.00212373
-0.000847483
-0.0094803
0.00519244
-0.00227163
-0.00485966
0.00713129
0.00956948
-0.00974129
-0.00606262
0.00266438
0.00305992
-0.00785817
0.00479828
0.00597609
0.00810751
-0.00340097
-0.00992185
0.00174809
0.00817374
0.00593555
-0.00182262
-0.00411294
-0.0037932
-0.000865386
0.00465862
0.00210826
0.00394539
-0.00605364
0.00841197
-0.00630371
0.000341491
-0.00772952
0.00738803
-0.0809921
-0.192056
0.273049
-0.0379911
0.0337832
0.0042079
0.00761857
-0.00131102
-0.00630755
-0.00168352
-0.00628656
0.00162779
0.00465877
-0.00442906
-0.00785802
0.0122871
-0.00130574
-0.0078086
0.00911435
-0.00571381
0.00969124
-0.00397742
-0.000921884
0.0079315
-0.00700961
0.00483148
-0.00190045
-0.00293102
-0.000517
0.00534847
-0.00230688
-0.00198317
0.000972953
0.00723244
-0.0082054
0.00204383
0.00510413
-0.00714795
-0.000523525
-0.00675038
0.0072739
0.00650505
0.00585063
-0.0123557
-0.000692928
-0.006899
0.00759193
-0.00618763
0.0054947
0.00196604
-0.0061451
0.00417905
-0.00724984
0.00692477
0.000325106
-0.00351567
-0.00373416
0.00650097
0.00374535
-0.0102463
0.413388
-0.219496
-0.00395524
0.0103191
-0.00636389
-0.00739214
0.00326909
-0.00569022
0.00753035
-0.00324077
-0.00428959
0.00506142
9.03624e-05
-0.00515178
0.00678362
-0.0046323
-0.00215132
-8.09396e-05
-0.00717789
0.00725883
6.94893e-05
-0.00690479
0.0068353
0.00170163
-0.0076607
0.00595909
-0.00711071
-0.00589108
0.0130018
-0.000459911
0.0064443
-0.00598439
0.00132605
0.00496539
-0.00629144
-0.000869393
0.00816013
-0.010611
0.00316838
-0.00345266
-0.00881563
-0.00768978
0.00562889
0.00206089
-0.00506047
-0.00262931
0.00662181
-0.00746341
0.0008416
0.00233882
0.00428299
-0.00603132
0.00895125
-0.00291993
-0.00768877
0.00165745
-0.00505874
-0.00335955
0.00841829
0.00461713
-0.0151705
0.0105535
0.00996027
-0.00736707
-0.00259311
0.00705078
0.00290952
-0.0385905
0.000363626
0.0069039
0.00259018
-0.00949408
-0.0102134
0.00651216
0.00370127
0.00582515
0.00161553
-0.00744067
0.0111227
-0.00237093
-0.00875181
0.00934042
-0.0102077
0.000867309
-0.00403036
-0.00422593
0.00825629
0.00103699
-0.0101854
0.00914837
4.17421e-06
-0.00964213
0.00963795
0.0089082
-0.00528904
-0.00361915
0.00295735
0.00583465
-0.008792
-0.00246794
-0.00736112
0.00982906
-0.00434404
-0.00486678
0.00921082
0.0015085
0.00542179
-0.00693029
0.00711418
-0.00906863
0.00195447
0.00130972
-0.00898809
0.00767838
-0.0248575
0.0184524
0.00640517
0.00690407
-0.0317615
0.00694188
-0.00619197
-0.000749903
-0.00918075
0.00307493
0.00610583
0.00368469
0.0035709
-0.00725559
0.00111736
0.00190769
-0.00302496
0.0567069
0.0262054
-0.0829124
-0.0293753
0.00936633
-0.00832934
0.00423968
0.00232991
-0.00656959
-0.000640819
0.0062657
-0.00562488
-0.0198669
0.0153838
0.00448302
-0.0105685
-0.00929836
0.00322058
-0.00754711
0.00432654
-0.0388454
-0.00146285
0.00692916
-0.00753696
0.000607799
0.00399754
0.00549802
-0.00949556
0.00674747
-0.00350418
-0.00324329
0.0175858
-0.0105834
0.0107111
0.00487926
-0.0155904
0.00150028
-0.00960838
0.0081081
0.00253315
-0.0112181
0.00868493
-0.000442854
-0.0104295
0.0108724
0.00463738
-0.00831434
0.00367697
-0.00964914
0.00374917
0.00589997
-0.00266093
-0.00556072
0.00822165
0.00406801
0.00483329
-0.0089013
0.00729142
-0.00626449
0.00319673
0.00437277
-0.0075695
-0.00820627
0.00345668
0.00474959
-0.00107722
-0.00712905
-0.00698781
0.00862903
-0.00164122
0.00835393
-3.00591e-05
-0.00832387
-0.00251458
-0.00103762
0.00355226
-0.00112148
0.00695675
-0.00583529
0.000270653
0.00596758
-0.00623825
-0.00044423
-0.0101677
0.0106119
0.00941016
-0.0131984
0.0037884
-0.00924445
0.00169612
-0.00782528
-0.00141913
-0.00428802
-0.00200255
0.00629055
0.00369011
-0.00622989
0.00253968
-0.00780758
-0.00185276
0.00966035
-0.00683463
-0.00884057
0.00462855
-0.00668857
0.00206002
-0.00104029
0.00466632
-0.0170036
0.00428568
0.012718
0.00758968
-0.00187368
-0.005716
-0.00478673
0.00654125
-0.00175452
0.00993914
-0.000598745
0.00869524
0.00124389
0.010524
0.00578252
-0.0056593
-0.000123219
0.000634326
-0.00471504
0.0471018
0.0109694
-0.00419401
-0.00677542
0.00741961
-0.00809878
0.000679175
0.0012639
0.00615571
0.00891958
-0.00892866
9.08017e-06
0.00501653
0.00390305
-0.00784683
-0.0112133
-0.00988376
-0.000305464
-0.0109078
0.0087571
-0.00402879
-0.00472829
-0.00725821
0.0047791
0.00247914
0.00161964
0.00369717
-0.00531687
-0.0110192
0.00254061
0.00847863
-0.00427962
-0.00509887
0.00937851
-0.0216677
-0.0195383
0.041206
-0.00593985
0.00323714
0.00270267
-0.00308636
-0.00285348
0.0112699
-0.00791439
-0.00335505
0.00241047
0.00738419
-0.00979466
-0.0071881
0.00693323
0.002553
-0.00828043
0.00572743
-0.00643121
0.00387855
0.00255266
-0.00101262
0.00366502
-0.00265243
-0.00395574
0.0172856
-0.0133298
-0.0261633
0.0222075
0.142297
-0.240788
-0.183811
0.0651287
-0.0297432
-0.0353857
-0.0100134
0.00488912
0.00512432
-0.0104392
0.000425723
-0.0043639
-0.00498906
0.00935297
0.00484355
-0.00920746
-0.0142993
0.0203227
-0.00602338
0.0152331
0.0282806
-0.00795791
-0.0197164
-0.0298742
0.0495909
0.0168492
-0.0365654
-0.00179096
0.00795377
-0.000845523
0.00918817
-0.00834253
0.00613351
-0.0116466
0.00551298
0.000728458
-0.00821335
0.00748489
0.0106401
-0.00452171
-0.00611855
0.00720869
0.00343137
0.00484711
0.00539764
-0.0102447
-0.0057426
-0.00765017
0.0183608
-0.0107107
0.00561807
-0.00432259
-0.00164013
-0.0375802
-0.018358
0.0559371
0.0256771
-0.0541768
0.0284994
0.00456537
0.0066103
-0.0111757
-0.00342136
0.00798672
0.000611261
0.00599904
0.00366725
0.00489875
-0.008566
-0.00365907
0.00907715
-0.00541809
0.00423655
0.00452059
-0.00315773
0.0100616
-0.00141278
-0.000454723
0.00186752
-0.005556
0.00891526
-0.00335926
-0.00498276
0.00851306
-0.00353029
0.0062394
-0.00128624
0.00357557
0.0107154
-0.00124561
-0.00946983
0.00324657
0.00428851
-0.00753508
-0.00871936
0.00741364
-0.00523206
-0.00386633
0.00909839
0.0089765
-0.00405216
-0.00492434
0.00133741
-0.00682089
-0.00372579
0.0105467
-0.0053206
0.0046678
-0.00839358
0.00360398
-0.00854799
0.00494401
-0.00497103
0.00857501
0.00684241
-0.0056375
-0.00120489
-0.00732001
0.00442368
0.00289635
0.00794413
0.000472202
-0.00841633
0.00183481
0.00415267
-0.00598748
0.00428417
0.00466287
0.00619625
-0.00707375
-0.00737783
0.00345697
0.00392086
0.0149357
0.0250104
-0.0399461
0.0375898
-0.0219674
-0.0156224
0.00156977
0.00573896
-0.00730873
-0.00431156
0.00588134
0.000530505
0.00520846
0.00969227
-0.00505489
0.00305458
0.00598294
-0.00903752
0.000912666
-0.0031698
0.00431436
-0.00234832
-0.00551811
-0.00981787
0.00739249
0.00242536
-0.00892057
0.00887921
0.00702031
-0.00160126
-0.00541901
-0.00035082
0.0123544
0.0114632
0.00801748
0.00433691
0.00687745
-0.0101448
-0.00250238
-0.00798704
0.0104894
0.0137276
0.00117015
-0.0148973
0.00745424
0.00633359
0.0135879
-0.00188772
-0.00544449
0.00733224
-0.00531988
0.00343217
0.00211975
-0.00452211
-0.011494
-0.0289662
0.0404602
-0.000210208
0.00779648
-0.00758627
0.0103296
-0.00870288
-0.00162668
-0.0143301
-0.00165943
0.0159894
-0.045533
0.0191658
0.0263672
0.0361326
-0.0285537
-0.0075789
0.00308617
0.00618833
-0.0092745
0.0152579
-0.0196864
-0.00224448
0.00648104
0.00385303
-0.00609749
0.00663016
-0.000149092
0.0043483
0.00408185
-0.00416793
0.00851622
-0.00291867
0.00700053
0.0101672
-0.0207357
-0.0068654
0.00295977
-0.00555651
0.00255517
0.00300134
0.00165094
0.0218126
-0.0264045
0.00459182
-0.00818074
-0.00329412
0.00569349
0.000133911
0.00462865
0.00688512
0.00784773
-0.00529473
-0.00623313
0.00623381
-0.0285704
0.000768756
0.0278015
0.00372935
-0.0074297
0.00370035
0.00835791
-0.00227364
0.00389585
-0.00162221
-5.73946e-05
5.70441e-05
0.0218073
0.0157825
-0.00765869
0.00594347
0.00171522
0.0326314
-0.00455065
0.00576791
0.00463377
-0.0104017
-0.00316768
0.00893559
0.00282635
0.00630483
-0.00913119
0.00778379
-0.00195864
0.00829845
-0.00822896
0.0357557
0.0198754
-0.055631
-0.00453575
-0.00489555
0.0094313
-0.0129003
-0.00142973
-0.00191085
-0.0109895
0.0141161
-0.0155458
-0.00515782
-0.000286652
0.0244847
0.00472004
-0.0292048
0.00728683
0.0171978
-0.0245438
0.0292638
-0.00221738
0.00789974
-0.00568235
0.0026947
0.00568785
-0.00838255
-0.00298216
0.00298226
-0.00585166
0.00818037
-0.0023287
-0.00729334
-0.0363164
0.0166917
0.0196248
-0.0145038
-0.00947159
0.00214089
-0.0021411
-0.00316094
0.00316139
-0.00490215
0.0129545
-0.00805236
-4.76336e-05
-0.00656861
0.00661626
-0.00630916
0.00534257
0.000966678
0.00272674
-0.00545237
0.00272565
0.00628988
-0.00290554
-0.00338433
0.00901663
-0.0102928
0.00779036
-0.00632805
0.00534776
0.000980314
-0.0042379
-0.00108196
0.007647
-0.00856888
0.0021288
-0.0021287
0.00343741
0.00428756
0.00508835
-0.010633
0.0020643
0.00856876
-0.0147833
0.00142705
0.0133562
-0.000151044
-0.0102223
0.0103734
-0.00653869
-0.00673303
0.0132719
0.00584132
-0.00278918
0.00159941
-0.00582446
0.00422505
0.0265994
-0.00310385
-0.0234956
0.0218816
0.0063989
-0.00437256
0.0055369
-0.00116431
-0.0101256
0.00569657
-0.0134918
0.00336613
0.0128466
-0.00715005
-0.00973354
0.000125162
-0.0059713
-0.00376224
-0.000763853
0.00639274
0.014559
0.0111241
-0.0256831
0.00393652
0.00605917
-0.00999568
0.00668083
-0.0140572
0.00737651
0.00403903
-0.00403907
-0.0107135
0.00235687
0.00835662
0.00395155
-0.00801159
0.00406005
0.00194588
-0.00194574
0.00812132
-0.00571086
-0.0117847
0.0111126
0.000672105
0.00526191
-0.00836222
0.00310031
-0.00596289
0.00691397
0.00395146
-0.0080247
0.00407325
0.0070327
-0.00739588
0.00627732
0.00111855
0.00743751
-0.000760275
-0.00667723
-0.0178537
0.0224436
-0.0045899
0.017845
0.0017061
-0.0195511
0.00876092
0.00373955
0.00831805
0.0104204
-0.00224071
-0.00951951
0.00506673
-0.00730742
-0.00140637
-0.00811313
-0.00476198
0.00537411
-0.000612122
0.00512804
0.000864998
-0.00599304
-0.00506303
0.00506363
0.00353321
0.00468727
-0.00822057
0.00131735
-0.00131723
0.00637941
-0.0104316
-0.00464503
0.00516308
-0.000518073
-0.265254
0.059839
0.205415
-0.165579
0.244657
-0.0790779
-0.430833
0.304496
0.0100976
-0.00165462
-0.00844297
-0.00771824
0.0028491
0.00486917
-0.00245634
-0.465602
0.322257
0.143343
-0.153654
-0.311948
-0.00142075
0.0110328
-0.00194452
-0.0128388
0.0127764
-0.00643982
-0.00633658
0.0108318
-0.00439684
0.00686934
-0.00247244
-0.00433039
-0.00694794
0.0112783
-0.00666157
0.00470043
-0.00635308
-0.00206429
0.00841736
0.0213885
0.00160351
0.00247021
-0.0203239
-0.016997
0.0335309
-0.016534
0.0180591
0.00365669
-0.00179115
0.00179131
0.0010718
0.0057527
-0.00682447
-0.00556203
-0.00170477
0.00726682
-0.00449023
0.00404794
0.00162434
0.00512313
0.00675238
-0.0119892
0.0135135
-0.00152446
0.00267783
0.0164589
-0.0191368
0.0224364
-0.0197586
0.000851075
-0.00550525
0.00465417
-0.02484
-0.000471167
0.0253111
-0.0164324
-0.00840763
0.0190331
-0.0195043
0.0019555
0.00375494
-0.00571046
0.00558004
0.00537293
-0.00906647
0.00247804
0.00658842
-0.0056987
-0.00336779
-0.0049916
0.056592
-0.0516003
-0.0054686
-0.0231018
-0.00355943
-0.00330813
0.00287681
-0.00528638
0.00240959
0.000580666
-0.00737873
0.00679806
-0.0065694
0.00715007
0.00473668
0.0126226
-0.0173593
-0.0130582
-0.00497242
0.0180306
-0.00832156
-0.00517706
0.00757164
-0.00239457
-0.00543569
0.00742336
1.41395e-05
-0.0271252
0.00769269
0.0194327
-0.0182857
-0.00883949
0.0322459
-0.0245531
0.0195587
-0.0194343
-0.00669741
8.33042e-05
-8.34035e-05
0.00539235
-8.85466e-05
-0.000115679
0.00550805
-0.00632485