/*--------------------------------*- C++ -*----------------------------------*\
  =========                 |
  \\      /  F ield         | OpenFOAM: The Open Source CFD Toolbox
   \\    /   O peration     | Website:  https://openfoam.org
    \\  /    A nd           | Version:  6
     \\/     M anipulation  |
\*---------------------------------------------------------------------------*/
FoamFile
{
    version     2.0;
    format      ascii;
    class       volVectorField;
    location    "200";
    object      U;
}
// * * * * * * * * * * * * * * * * * * * * * * * * * * * * * * * * * * * * * //

dimensions      [0 1 -1 0 0 0 0];

internalField   nonuniform List<vector> 
29884
(
(7.46789 0.0574615 -1.0541e-16)
(5.31524 0.0248173 9.18379e-17)
(5.41224 -0.115437 4.60638e-17)
(7.11072 -0.0758768 5.67669e-20)
(7.21611 0.103863 -2.76897e-17)
(5.74349 0.155794 6.51965e-17)
(7.88137 -0.120636 -3.42445e-19)
(7.37909 -0.00269094 4.19506e-17)
(4.68297 0.122714 2.79327e-17)
(7.13535 0.0178553 6.65195e-17)
(7.44384 0.00886001 -3.0469e-17)
(7.20167 0.195547 1.25993e-17)
(8.0791 -0.132001 -2.74502e-17)
(7.15342 -0.113165 2.4296e-17)
(7.17424 0.0969987 -3.21698e-17)
(4.42686 -0.0563775 8.33536e-17)
(8.21576 0.0484125 -3.51457e-17)
(6.65819 0.197567 -5.91667e-17)
(6.50454 0.1643 0)
(4.16787 -0.0036795 -1.6408e-16)
(7.7804 0.212864 1.44188e-16)
(4.94068 -0.0378115 0)
(8.00612 -0.0623507 -3.39532e-18)
(7.11443 -0.0216348 0)
(7.07085 -0.0131251 0)
(7.59596 0.043827 -2.33098e-17)
(7.83768 -0.0150236 0)
(7.99545 -0.0382718 8.09759e-17)
(5.16181 -0.0248825 7.95074e-17)
(5.14739 0.11244 8.42192e-18)
(5.39756 -0.00774657 -1.18206e-17)
(4.80985 0.0896498 4.86504e-16)
(7.97108 0.0415506 -2.38442e-17)
(7.44102 -0.0302345 0)
(7.27719 -0.0585665 -7.3698e-17)
(7.50815 -0.104736 5.9395e-17)
(4.99905 -0.0353668 8.93808e-17)
(7.54432 0.138971 9.61301e-18)
(5.34828 0.147616 -7.61363e-17)
(7.75733 -0.149002 -3.91979e-17)
(5.00759 -0.0490288 0)
(7.05494 0.0716707 1.36154e-17)
(7.60068 0.197284 -4.66391e-17)
(7.23 0.283632 -3.06941e-16)
(6.97445 -0.0161857 2.2846e-17)
(7.5593 -0.158708 -2.55513e-17)
(7.99235 -0.194021 0)
(7.66173 -0.108905 -6.78842e-18)
(4.80643 0.0344693 -5.14182e-18)
(8.36004 0.0920239 0)
(7.3737 0.125501 0)
(7.18338 -0.0737814 2.38005e-18)
(4.70659 -0.151579 3.54812e-17)
(8.39682 0.0248924 1.00614e-16)
(7.18856 -0.0637615 -7.96483e-17)
(7.0738 -0.139446 6.2393e-17)
(4.39696 -0.0180558 6.9415e-18)
(7.95679 -0.0492301 0)
(6.64484 0.0533812 6.26527e-17)
(6.87301 -0.138153 -9.80486e-17)
(7.73738 0.160998 -1.83463e-17)
(7.78323 -0.00823136 2.4457e-17)
(4.717 -0.100621 0)
(8.13818 0.0525684 -3.29568e-17)
(7.12412 -0.0690062 2.77641e-17)
(7.01013 0.0801055 -6.30201e-18)
(7.43284 -0.0407864 9.3881e-18)
(7.81114 -0.11194 6.39946e-17)
(7.38531 -0.0948027 -4.38988e-17)
(7.32723 0.0689523 5.3769e-17)
(7.24749 0.196559 4.26389e-17)
(7.67242 0.0662189 -1.47829e-17)
(7.51796 0.102002 0)
(5.63186 -0.138826 0)
(7.2826 -0.10631 -5.54889e-17)
(6.89516 -0.089824 -1.97182e-17)
(8.12005 0.109393 0)
(7.86038 -0.118092 0)
(8.06757 -0.112119 0)
(5.08379 0.0387522 0)
(7.65825 -0.0706457 5.25265e-17)
(5.2115 -0.0527198 0)
(7.06117 -0.132125 0)
(7.01421 0.0960396 2.63664e-17)
(6.55281 -0.0561884 -1.96471e-17)
(4.62948 -0.58013 -8.78971e-18)
(7.35724 0.000275035 0)
(7.5951 -0.0352541 0)
(7.25047 -0.11304 4.46239e-18)
(3.85635 -0.923998 1.74466e-17)
(7.16605 -0.207561 0)
(7.85408 -0.229219 -1.77364e-17)
(4.63031 -0.190824 -5.03652e-17)
(3.57852 -0.823935 0)
(7.11914 0.129424 -4.20935e-17)
(-0.592246 0.170815 0)
(6.9961 0.0140957 -6.77436e-17)
(7.007 0.0131374 8.95155e-17)
(7.47485 0.0552826 1.75949e-17)
(3.60713 -0.671898 0)
(7.01127 0.0380968 4.57471e-17)
(6.94168 0.0748802 1.03639e-16)
(7.64833 0.0109424 0)
(7.73788 0.0141094 -1.82902e-18)
(7.35573 -0.122029 -4.98214e-18)
(8.09674 -0.107546 0)
(3.98115 -0.733403 1.42478e-17)
(3.84555 -0.108315 -3.63883e-17)
(7.11783 0.137249 -4.81435e-17)
(6.93716 -0.31214 0)
(7.38035 -0.204321 0)
(-0.807989 0.10074 5.77091e-17)
(7.23799 -0.0834895 2.71498e-18)
(7.09669 -0.109456 0)
(7.2988 -0.121589 -1.91084e-18)
(6.97207 0.112512 -2.64936e-17)
(7.16017 0.117992 0)
(7.1087 -0.247556 0)
(6.75886 -0.06446 0)
(6.63609 -0.286369 4.16175e-17)
(7.00362 0.00606817 0)
(6.83373 -0.278466 2.81804e-17)
(7.30472 -0.146841 4.24898e-17)
(6.78131 0.199774 0)
(7.04121 -0.0170126 1.22448e-17)
(7.03551 -0.193281 -6.20291e-17)
(7.78926 -0.27132 5.35596e-18)
(7.94121 -0.0417841 1.6249e-17)
(6.85167 -0.221711 -5.16464e-18)
(6.98407 0.141253 0)
(6.76775 0.172006 1.28268e-17)
(6.94462 0.124109 -1.44708e-17)
(6.93819 -0.0992871 3.92447e-17)
(8.10267 -0.108755 0)
(6.84811 -0.0891604 0)
(7.4515 -0.0924061 0)
(7.6483 0.237259 0)
(7.33948 -0.120124 7.58662e-18)
(7.51999 -0.148908 -1.82705e-17)
(7.51963 -0.136397 3.67006e-17)
(7.38796 -0.123164 0)
(7.27367 -0.00680025 2.50228e-17)
(7.68969 0.148148 -1.83813e-17)
(7.71093 -0.212051 -8.81068e-18)
(7.95575 -0.171965 -9.68304e-18)
(7.97894 -0.197543 9.56757e-19)
(7.73026 -0.163354 1.79412e-17)
(7.4868 0.18016 5.33067e-17)
(7.80635 0.119992 -4.47425e-17)
(7.74503 0.209445 4.87838e-17)
(7.63543 0.128044 0)
(4.39978 -0.223719 -2.338e-17)
(4.06334 -0.119608 0)
(7.88895 -0.147465 -1.5246e-17)
(7.80475 -0.222611 2.61801e-17)
(7.87046 -0.166766 0)
(7.91164 -0.188403 -8.09021e-18)
(7.79717 -0.208138 0)
(7.84747 -0.120597 0)
(7.8844 -0.179794 0)
(7.84274 -0.14887 -2.60098e-17)
(7.03397 0.0346343 3.44983e-17)
(6.9511 -0.037839 -3.49909e-17)
(7.54005 0.196259 -8.73643e-17)
(0.350829 -0.00707721 -3.34283e-16)
(0.352784 -0.0018392 6.7853e-21)
(4.89032 -0.0747843 0)
(4.72438 -0.00664717 0)
(7.00797 0.0432677 -3.71599e-17)
(7.94928 0.144386 5.29477e-17)
(7.35536 0.0455398 -1.61544e-16)
(6.98048 0.106073 0)
(6.97342 0.0765925 0)
(6.79545 -0.0580175 -1.36244e-17)
(6.95017 -0.0643126 0)
(7.00714 -0.16507 7.74263e-18)
(6.81037 -0.239876 -7.06116e-17)
(5.15361 -0.0327176 7.64186e-17)
(7.07201 0.14058 -3.59674e-17)
(7.23227 -0.187467 -7.67222e-18)
(6.96709 -0.265367 -1.64842e-17)
(6.33347 -0.333344 -3.08825e-18)
(6.32594 -0.248392 3.9165e-17)
(6.4359 -0.184598 7.87017e-18)
(7.10909 -0.104376 5.48813e-18)
(7.25262 -0.133487 0)
(7.06516 -0.0224379 -4.90563e-17)
(6.98537 0.000384993 3.41898e-17)
(7.27601 -0.236713 -4.71489e-18)
(6.97779 0.114775 2.99967e-17)
(7.3568 -0.178548 0)
(6.55955 -0.0595901 2.54667e-17)
(6.42938 -0.109983 -7.34002e-18)
(7.26313 0.159553 1.0293e-17)
(7.36364 0.127841 -4.03073e-18)
(7.03705 0.158037 0)
(6.84406 0.185385 0)
(7.37536 0.0548543 2.10988e-17)
(7.61673 -0.0175744 -5.33902e-18)
(7.46877 -0.129022 0)
(6.76328 0.0314755 0)
(7.5916 -0.0285552 0)
(7.53071 0.0601161 3.36982e-17)
(7.16857 -0.0104148 -3.33166e-17)
(7.37045 0.0711832 -9.57892e-17)
(6.56796 -0.26591 0)
(7.39995 -0.0754707 0)
(7.16409 -0.112061 0)
(7.30483 -0.042853 0)
(7.84464 -0.122578 0)
(7.69157 -0.12229 0)
(7.87259 0.0625035 0)
(8.07772 -0.0824504 0)
(4.72743 -0.0767051 0)
(7.01798 -0.0980742 0)
(4.09352 -0.66055 -1.68284e-19)
(5.89364 2.83951 -8.7312e-19)
(3.93784 -0.725264 7.34059e-19)
(6.70782 2.88757 0)
(3.20028 -1.5158 5.79934e-21)
(3.14995 -1.47701 1.22811e-17)
(6.53155 -1.94041 2.36344e-18)
(6.79065 0.324024 0)
(6.73085 2.43312 0)
(4.3148 -0.95851 -2.00708e-17)
(3.07727 -1.50576 1.32253e-20)
(4.14068 -0.791476 1.18191e-18)
(3.36113 -0.747919 0)
(2.07252 -3.76817 6.39867e-18)
(7.21154 -1.68066 0)
(4.99369 -3.71025 -8.71994e-20)
(3.94081 -0.718942 1.27931e-18)
(4.63774 -0.814482 -1.47291e-21)
(4.2382 -1.54909 -1.38342e-18)
(4.44655 -1.59067 -1.22228e-18)
(4.5831 -0.790497 2.66216e-19)
(4.47819 -0.782471 -3.30219e-19)
(6.72526 0.240027 -8.00058e-17)
(5.72848 -0.816744 0)
(2.38295 -1.12551 -4.07293e-18)
(2.88052 -1.15121 0)
(-0.0886989 0.147343 0)
(4.05844 -0.781242 -7.35583e-19)
(3.37747 -1.50464 3.16746e-18)
(3.51397 -1.22798 -1.85409e-18)
(6.35982 1.96715 0)
(3.96489 -1.18473 1.2868e-18)
(3.99539 -0.6672 0)
(6.26139 -1.48881 5.48701e-19)
(6.15536 -1.56889 -2.59858e-18)
(4.18519 -1.39304 -2.2156e-18)
(5.51244 3.02111 1.08498e-19)
(6.21299 2.50186 2.0964e-18)
(6.14925 2.64024 -2.63275e-18)
(3.20491 -1.23933 0)
(3.1668 -1.37916 5.54266e-20)
(3.31714 -1.51863 -1.67436e-17)
(3.2676 -1.45977 -2.80017e-21)
(6.55823 -1.65783 -1.28862e-18)
(6.90299 -1.69948 1.11742e-18)
(6.61098 -2.13173 0)
(5.84534 2.70263 3.5475e-18)
(2.98653 -1.70322 -1.54738e-18)
(0.877991 0.267034 -9.91976e-17)
(5.44511 2.89964 0)
(3.59078 -0.917731 0)
(5.93808 -1.75691 4.56701e-18)
(6.46558 2.11503 2.30109e-18)
(6.52818 2.17724 5.25878e-19)
(3.58781 -0.855275 0)
(5.79076 3.13019 -2.15715e-19)
(5.79697 3.10705 2.19015e-19)
(3.35122 -1.45719 8.72773e-18)
(3.33729 -1.33438 2.0907e-19)
(3.13937 -1.41523 1.66645e-18)
(4.09535 -1.15221 4.07264e-17)
(3.90518 -1.11747 0)
(3.38594 -0.86302 0)
(3.4641 -0.907369 4.79519e-19)
(2.88495 -1.34914 1.81276e-18)
(5.26573 -0.367944 0)
(4.46498 -0.876368 -3.04234e-19)
(6.83529 -0.387594 2.49689e-17)
(5.82516 3.10525 0)
(6.57643 0.202934 5.4833e-17)
(6.20119 2.32635 0)
(6.2525 2.40127 0)
(4.34696 -1.86947 0)
(-0.308007 0.221745 1.63685e-16)
(6.87431 0.317015 -7.39105e-17)
(3.25734 -0.641665 -9.28953e-18)
(4.53929 -0.813303 1.08734e-18)
(4.60689 -0.818262 -5.18316e-19)
(2.90697 -1.46801 -1.04556e-18)
(4.83243 -1.80882 -5.33088e-19)
(4.78388 -1.78141 -1.5997e-18)
(5.9869 2.59798 4.58991e-18)
(4.52178 -0.822183 -1.73908e-18)
(4.48163 -0.849411 6.40283e-19)
(3.34578 -1.39582 -1.38681e-18)
(6.51694 -3.47005 0)
(4.13675 -0.880662 0)
(4.24028 -0.895352 0)
(4.13604 -0.934124 0)
(3.29303 0.213885 -1.68708e-17)
(3.96723 -1.78507 8.80323e-18)
(4.31053 -1.40011 0)
(6.13396 0.115478 -1.64767e-17)
(6.10067 2.6146 -6.94963e-19)
(6.07159 2.50142 -2.4894e-18)
(6.13461 2.52464 -2.72454e-18)
(6.0317 2.59534 -5.92163e-18)
(3.28845 -1.62999 -1.89448e-17)
(2.537 -1.53148 7.94925e-19)
(2.68186 -1.59025 -1.63214e-18)
(4.88068 -1.77782 2.55972e-18)
(4.27702 -1.46938 0)
(4.31161 -0.789671 1.12725e-18)
(6.48027 -1.7747 -1.07395e-18)
(6.01844 -1.73167 -2.97837e-19)
(6.48796 -1.71051 8.51889e-19)
(3.54314 -0.0704355 0)
(3.40426 0.14112 -1.67238e-17)
(3.40058 -0.0532347 0)
(5.24466 -1.82061 -8.45796e-19)
(5.849 3.14624 2.09876e-19)
(3.3157 -1.86563 -1.27047e-17)
(3.28912 -1.70246 1.68068e-17)
(3.36438 -1.73302 2.0602e-17)
(3.20347 -1.84392 5.7701e-18)
(6.2458 2.76978 1.23561e-18)
(6.33895 2.71533 -1.25199e-18)
(6.30131 2.6818 3.17547e-19)
(6.30821 2.78983 3.5193e-19)
(4.00899 -0.759085 1.42545e-18)
(3.86048 -0.696701 -8.6633e-19)
(6.81115 0.289157 -2.49959e-19)
(4.92099 -0.892062 -3.101e-18)
(3.30137 -0.926911 -1.85799e-17)
(3.31018 -1.10889 0)
(5.15364 -1.5373 -1.86501e-18)
(7.4247 -0.413797 -3.36886e-17)
(3.27209 -1.37276 5.2838e-18)
(5.907 -0.85531 -1.89855e-18)
(7.086 -0.254104 1.267e-17)
(3.27197 -0.835884 0)
(3.30291 -0.777645 1.78426e-17)
(3.27865 -0.731265 6.79513e-20)
(3.29873 -0.849208 -5.07644e-18)
(3.74544 -0.228423 3.05285e-19)
(3.75167 -0.394015 0)
(3.55974 -0.188303 -6.45666e-18)
(5.80044 3.14232 0)
(5.8266 3.14514 0)
(5.7894 3.15949 5.89757e-19)
(3.51125 -0.591066 0)
(3.3894 -0.623929 3.12919e-17)
(3.3127 -0.31862 0)
(3.35371 -0.520612 -3.3266e-17)
(3.37825 -0.370006 0)
(3.54719 0.366563 -6.27847e-18)
(3.775 0.100918 3.61694e-17)
(6.19977 0.167621 -5.9746e-17)
(6.73407 2.31205 -1.46393e-20)
(6.13536 2.69888 9.8342e-19)
(6.19604 2.75911 -1.84747e-18)
(6.67741 -0.550292 6.42461e-18)
(6.72426 -0.366431 0)
(0.366203 0.129542 0)
(3.22811 -0.878742 -7.88986e-18)
(4.8177 -1.47296 0)
(4.30644 -1.3771 -6.45629e-18)
(7.07753 -0.268578 -2.81627e-17)
(7.10591 -0.249136 2.15219e-17)
(7.0273 -0.305602 0)
(5.80168 2.76645 2.07736e-18)
(5.7476 2.8685 1.12944e-18)
(5.06407 -1.60256 2.16881e-19)
(4.94044 -1.80327 0)
(5.13207 -1.80769 1.0863e-18)
(4.95806 -1.83985 1.26811e-18)
(5.2675 0.170625 9.8312e-17)
(6.51316 -0.440645 -5.46165e-17)
(6.53336 -0.539917 0)
(6.59105 -0.374449 -2.46781e-17)
(3.47791 -1.3493 0)
(3.92192 -1.43175 2.79434e-18)
(3.77939 -1.42528 -4.47857e-21)
(3.59899 -1.38221 -3.12056e-18)
(4.33257 -0.456886 0)
(4.10007 -0.249191 -2.03146e-18)
(4.03314 -0.442028 -3.14177e-17)
(4.33939 -0.316749 0)
(4.19382 -1.5133 1.14694e-18)
(4.45968 -1.58114 -1.52212e-19)
(4.39352 -1.53212 -1.04073e-18)
(4.25871 -0.819989 1.19838e-18)
(4.19278 -0.804963 0)
(3.44586 -1.23244 0)
(3.11703 -1.18553 -4.27833e-18)
(4.03191 0.251219 -4.97812e-19)
(3.75146 0.559821 -8.10326e-18)
(4.4047 -0.626523 -5.02794e-19)
(4.17853 -0.742439 1.72024e-17)
(4.31907 -0.757165 -1.09839e-17)
(4.3313 -0.535961 9.95806e-18)
(2.73079 -1.7806 -1.3354e-18)
(6.67578 0.261503 9.76956e-18)
(6.66381 0.232715 0)
(6.87959 0.145827 0)
(6.8129 0.179613 5.4429e-18)
(3.86533 -0.512913 0)
(3.99077 -0.610039 0)
(3.19396 -0.439769 -2.25691e-17)
(3.16186 -0.336094 1.0468e-20)
(3.16088 -0.505923 1.03788e-17)
(3.61184 -1.30554 0)
(6.5899 -2.03599 0)
(3.8066 0.108061 -5.03375e-20)
(3.92881 -0.166806 -9.79148e-19)
(3.76668 -0.647824 -8.70957e-19)
(2.23342 -1.1622 0)
(3.45923 -1.2525 8.62025e-18)
(3.50733 -1.13905 1.69767e-17)
(3.37838 -1.22626 0)
(3.73898 -0.628002 0)
(3.95346 -0.45953 4.07063e-17)
(3.80557 -0.43599 -4.95126e-18)
(3.94102 -0.616779 -2.93237e-17)
(3.42311 -1.4817 1.71653e-17)
(3.52909 -1.38351 0)
(3.47055 -1.33778 -1.78249e-17)
(3.50721 -1.49257 0)
(7.52551 -0.380455 1.21234e-17)
(3.86151 -1.45259 0)
(3.69329 -1.32917 0)
(3.8342 -1.26903 0)
(3.69537 -1.47333 1.44212e-17)
(3.83036 -1.13685 0)
(4.31489 -1.24306 -1.90586e-18)
(3.93383 -0.936266 -3.5441e-19)
(4.08993 -0.930485 0)
(4.06068 -0.981237 3.27393e-19)
(3.96333 -0.887638 0)
(6.90226 0.0860138 3.48566e-19)
(6.8664 0.0225897 0)
(6.51792 0.323012 3.23754e-17)
(4.82834 -1.56615 -1.87026e-19)
(4.41829 -1.42406 1.89661e-18)
(4.80471 -1.52431 1.54497e-18)
(4.41582 -1.4737 2.0042e-18)
(6.8877 2.26872 0)
(7.26371 0.443804 -3.05458e-17)
(4.63018 -1.60665 1.78153e-17)
(4.71719 -1.31358 -3.27742e-17)
(6.95551 -0.343265 2.0502e-17)
(7.06257 -0.267929 -1.31071e-18)
(6.98234 -0.306567 -1.34567e-17)
(6.86043 1.43829 1.67432e-18)
(5.26377 -0.304711 -2.03548e-17)
(0.82588 -0.517122 0)
(6.13267 -0.45605 -2.2155e-17)
(6.23961 -0.43555 5.15147e-18)
(5.47133 3.03121 -8.44999e-19)
(3.81536 -1.47958 0)
(3.78975 -1.47286 -8.62415e-20)
(4.00877 -1.49317 1.63476e-18)
(3.61762 -1.44951 1.61251e-18)
(4.40755 -1.29312 0)
(4.61323 -0.982217 -5.68465e-18)
(4.43128 -1.03549 0)
(4.62331 -1.22297 3.60671e-17)
(6.90425 0.115539 0)
(6.914 0.0787415 1.25726e-17)
(6.90242 0.0967909 0)
(7.00355 0.0743347 5.37246e-19)
(7.00032 0.093783 -1.48924e-17)
(7.54545 -0.183067 0)
(7.20774 -0.228593 -5.88962e-18)
(7.34449 -0.22209 5.60872e-18)
(7.38746 -0.18363 0)
(6.63771 0.189662 0)
(6.75034 0.0983611 -6.88348e-17)
(6.7174 0.169088 4.92238e-18)
(6.65282 0.139926 4.24734e-17)
(3.29024 -1.47956 -3.55675e-18)
(3.05462 -1.38008 0)
(3.05038 -1.45483 0)
(3.27903 -1.42259 0)
(5.91147 2.71975 1.8376e-18)
(5.92602 2.80092 -1.03952e-18)
(5.98313 2.67742 1.42244e-18)
(3.31152 -1.16192 0)
(3.26587 -1.23526 6.31813e-18)
(3.28503 -1.18183 -6.75298e-18)
(3.31151 -1.23125 -5.25493e-18)
(6.51296 0.216789 -9.16108e-18)
(6.39392 0.24537 3.64907e-18)
(6.46183 0.18946 9.15165e-17)
(-0.808347 0.130062 -2.15312e-17)
(1.02472 -0.0299983 2.99411e-17)
(6.94227 0.15133 0)
(1.4268 -0.733329 -7.93561e-19)
(5.42467 0.0598736 -1.17339e-16)
(6.99577 0.0213323 4.12455e-17)
(7.02022 0.0774659 1.70759e-17)
(-0.108248 0.132641 -2.18463e-17)
(0.0682538 0.0532804 1.95289e-17)
(7.01195 0.119146 5.14179e-17)
(7.01057 0.0861838 5.64729e-17)
(7.00931 0.0935083 -1.86102e-17)
(6.95844 0.20842 7.75101e-17)
(5.71024 -1.50744 2.96726e-18)
(7.00462 0.247685 0)
(6.07794 -0.0984516 1.32033e-17)
(-0.631636 0.186765 3.48844e-20)
(-0.9161 0.244963 0)
(6.77637 0.240703 -5.524e-17)
(3.72366 -0.869489 0)
(7.42649 0.00998454 -4.7194e-17)
(7.00014 0.146568 3.91856e-17)
(6.76547 -0.0103354 0)
(7.73455 -0.441602 0)
(7.34773 0.333642 0)
(7.33615 0.408464 3.40898e-17)
(0.441328 0.0832525 5.85421e-17)
(7.66851 -0.280717 6.86447e-17)
(7.58563 -0.344574 0)
(7.14158 0.177314 -7.4973e-18)
(6.85081 0.286324 0)
(4.74345 -1.31456 1.85721e-18)
(6.14093 -0.0918526 1.6326e-17)
(7.17058 -0.182242 -2.12671e-18)
(7.10475 -0.238923 5.60259e-18)
(7.1439 -0.21289 5.65753e-19)
(7.54199 -0.211585 0)
(6.64225 -0.403822 -6.24924e-18)
(6.62295 -0.501678 8.59796e-18)
(8.05906 -0.214648 3.39448e-17)
(8.10834 -0.129467 -3.45044e-17)
(8.02219 -0.126338 7.62263e-17)
(6.86364 -0.122042 4.76471e-18)
(6.75809 -0.119919 2.82828e-18)
(6.9758 0.184607 2.27959e-17)
(6.97058 0.158519 2.23296e-17)
(7.00053 0.0236603 2.34617e-17)
(7.00301 0.0375751 5.17118e-17)
(6.43001 -0.340526 0)
(1.19015 -0.188172 0)
(6.7659 -0.411684 0)
(6.74286 -0.511821 0)
(7.08647 -0.184848 -1.12486e-19)
(6.98464 0.262753 -2.32137e-17)
(6.20876 -0.0988298 -1.27422e-17)
(7.00418 0.174651 -4.01591e-17)
(6.99423 0.2158 0)
(6.99308 0.196979 8.79202e-19)
(1.05116 0.120035 0)
(6.93625 0.117838 -1.22913e-17)
(6.94607 0.106347 1.21404e-17)
(5.70962 -1.65749 2.17241e-18)
(6.05183 -1.6668 0)
(5.9083 -1.62311 6.2944e-19)
(7.34118 -0.332978 -5.98546e-17)
(7.13343 -0.0591707 0)
(8.24276 -0.0448302 0)
(6.56517 -0.0603873 -2.43738e-18)
(6.52245 -0.0572653 -1.84042e-17)
(6.79396 -0.0578492 2.59308e-17)
(4.72108 -0.347909 6.16876e-17)
(4.92169 -0.335058 0)
(7.42985 -0.360741 -6.85701e-17)
(7.38483 -0.33264 5.44038e-17)
(8.06864 0.0328737 -3.60792e-17)
(8.13409 -0.10988 0)
(6.04262 -0.159985 0)
(7.02744 -0.00565368 0)
(7.18874 0.391846 1.22978e-17)
(7.16547 0.341672 0)
(8.02497 -0.140222 0)
(8.23356 -0.11379 -2.11843e-17)
(0.655585 0.186668 0)
(7.10136 -0.266435 -9.17582e-19)
(7.21075 0.00962466 0)
(4.71039 -0.809924 -2.92841e-17)
(7.22433 0.123591 8.78214e-19)
(7.23372 0.0815497 -1.63566e-19)
(0.370923 -0.0280461 -2.32446e-16)
(3.84086 0.242243 1.48604e-17)
(3.69849 0.397476 -9.30678e-18)
(6.79616 0.217886 4.87765e-17)
(6.99739 0.0550618 -2.20317e-17)
(6.99259 0.0739249 -2.33192e-17)
(6.27967 -1.37708 -5.80818e-18)
(6.39171 2.19347 -2.03108e-18)
(6.16248 0.0112075 -3.42788e-17)
(6.04369 -0.0499635 0)
(3.23847 -1.26716 1.10626e-17)
(3.22908 -1.33786 -1.11256e-17)
(6.65749 0.0877082 -4.29423e-19)
(6.55047 0.00824427 7.25687e-17)
(6.64832 0.0218978 0)
(6.99981 0.095313 4.78505e-17)
(7.00331 0.128044 2.0077e-18)
(0.571007 0.109705 0)
(6.96619 0.253573 -4.92438e-17)
(6.60374 0.248219 -5.35086e-17)
(6.57082 0.320294 -3.1982e-17)
(6.86458 0.239257 9.32596e-17)
(6.90336 0.23989 -6.71505e-17)
(6.92041 0.203064 -2.63604e-17)
(7.30074 0.0560522 -5.26048e-17)
(6.27727 -0.012629 2.33533e-17)
(6.38894 0.0503428 -5.78216e-17)
(6.1866 -0.172443 -1.31486e-17)
(6.2935 -0.0881667 -8.14149e-17)
(7.51735 0.0122494 0)
(7.66735 0.0776202 -3.30989e-18)
(7.17718 -0.143043 -2.27232e-17)
(7.87542 -0.00524248 5.95006e-17)
(6.5121 2.28984 1.23504e-18)
(6.98233 0.138865 2.50052e-18)
(7.00984 -0.32045 0)
(7.05511 -0.269191 7.47574e-18)
(5.98968 -1.04781 0)
(6.05536 -1.17198 9.00841e-18)
(7.4727 0.184975 -5.52178e-17)
(7.82463 0.154546 -3.07139e-17)
(7.52636 0.115666 -1.14388e-17)
(7.4414 0.138188 6.90685e-18)
(5.69491 -0.148452 0)
(5.50583 -0.195237 0)
(3.66694 -1.56309 -1.99164e-17)
(3.51498 -1.56751 0)
(3.44324 -1.71368 -1.67019e-17)
(3.18636 -1.61949 -1.3746e-17)
(7.01688 0.0547046 -6.70079e-18)
(6.72936 0.207595 0)
(6.8096 0.195064 0)
(7.50899 0.0307462 0)
(7.84672 0.03868 -6.49583e-17)
(4.15433 0.0745159 -2.77808e-17)
(4.33516 0.044473 2.35029e-17)
(8.33344 0.0656447 -1.4413e-17)
(8.2053 0.120065 -1.91207e-16)
(8.06465 0.0306565 -7.28722e-17)
(7.14322 0.0807249 0)
(7.70442 0.2374 0)
(7.02897 0.0865017 0)
(7.41418 -0.0452867 0)
(7.01549 0.189159 -4.69484e-16)
(4.89942 0.0336363 5.29278e-16)
(7.45161 0.180463 8.74476e-17)
(6.21569 -1.84145 0)
(6.30365 -1.84881 0)
(6.98818 0.0261224 -2.31316e-17)
(6.95194 0.0483041 -5.49636e-17)
(7.02178 0.0427308 1.81258e-17)
(6.93675 0.0625604 7.99397e-17)
(7.86444 -0.243361 5.69352e-17)
(5.06274 -0.112425 -4.33786e-17)
(5.22306 -0.160469 -5.55017e-17)
(5.37887 -0.0629016 8.74655e-17)
(6.89358 0.125876 0)
(6.88144 0.149569 0)
(6.85179 0.185423 0)
(6.87329 0.176573 -2.75516e-17)
(6.83175 0.219154 0)
(7.00143 0.0635504 3.53569e-17)
(7.30295 -0.063458 5.62241e-17)
(7.01495 -0.113042 -4.78729e-17)
(7.49488 -0.341331 9.26526e-17)
(7.60315 -0.28372 -6.2921e-17)
(7.59393 -0.261308 -5.94315e-17)
(7.5842 -0.240217 0)
(7.40784 -0.251482 2.23787e-17)
(7.47156 -0.275784 -2.23134e-17)
(4.74966 -0.0778745 -1.27883e-17)
(6.87661 -0.0324517 -9.01794e-18)
(7.78902 -0.221425 1.99496e-17)
(5.06836 -0.470361 0)
(5.22582 -0.405492 -2.45356e-17)
(5.42325 -0.401633 -4.19869e-17)
(0.90365 -0.192768 1.03056e-17)
(1.06623 -0.115473 9.19317e-18)
(6.39538 0.107237 2.84664e-17)
(6.30315 0.13572 0)
(3.66699 -0.968977 -2.99374e-18)
(3.6098 -1.12393 0)
(7.69764 -0.0998639 -1.91256e-17)
(7.85221 0.0307493 0)
(7.77902 0.110415 3.56998e-18)
(3.24426 -0.728988 2.21592e-18)
(3.13549 -0.732095 -2.51737e-20)
(5.23302 -2.91284 2.94577e-19)
(5.23311 -2.97801 -2.71908e-19)
(3.2665 -1.09495 0)
(4.25188 0.379235 -4.67976e-19)
(7.18163 -0.508223 -1.79576e-20)
(5.94577 -0.364272 0)
(6.26232 -0.331934 5.62086e-20)
(6.11986 -0.416191 -1.40377e-19)
(2.78453 0.0927236 0)
(6.07369 -2.37067 -2.02395e-19)
(7.70133 0.718074 -4.54727e-19)
(7.17225 -0.331804 6.9524e-20)
(7.93637 -0.599311 9.02617e-19)
(5.35796 3.09882 4.5473e-19)
(2.88446 0.151684 4.29254e-18)
(2.5216 -2.29515 7.93105e-19)
(6.73787 -1.87714 0)
(3.72273 -0.62428 0)
(7.64778 0.673706 0)
(2.28203 -1.96201 0)
(2.37062 -2.03487 0)
(5.99223 2.78197 1.9993e-20)
(5.9985 2.87006 0)
(6.28098 -0.519438 1.02265e-19)
(6.57318 -0.284986 -1.91963e-20)
(6.56286 -0.263646 2.18176e-20)
(5.97312 -0.404316 8.69545e-20)
(7.02133 -1.53688 5.68696e-20)
(7.04661 -1.59673 2.51137e-20)
(3.70952 -2.23083 5.8969e-19)
(6.14189 -0.418735 -8.13548e-21)
(6.17711 -0.428433 0)
(6.76037 -0.06577 8.18893e-21)
(6.77267 -0.25433 -5.60029e-21)
(6.76663 -0.229456 -9.46211e-21)
(6.59052 -0.250594 0)
(6.49086 -2.32443 0)
(6.49144 -2.2783 1.62477e-21)
(3.26547 -1.55034 9.77445e-19)
(6.181 -0.297448 6.98373e-20)
(6.18339 -0.317398 -1.85906e-20)
(2.07056 -1.16904 0)
(1.28961 -1.41934 2.73206e-17)
(3.97136 0.26186 4.15214e-19)
(4.06627 0.247069 -1.18262e-20)
(2.92377 -0.411756 4.79748e-18)
(7.76253 -1.76011 -4.37108e-18)
(5.53084 2.65775 8.3893e-19)
(7.41806 0.155003 9.98357e-20)
(5.41558 -1.97086 -9.51493e-20)
(3.0351 -0.935406 -1.08723e-18)
(5.84152 3.06743 0)
(5.6693 3.19213 1.49674e-19)
(6.16931 -2.51541 9.49144e-20)
(3.19619 0.549162 -1.77805e-20)
(6.45236 -1.87471 -9.68529e-20)
(6.46633 -1.8828 2.79522e-19)
(6.20616 -1.86688 0)
(6.92893 -1.74746 0)
(6.81345 -1.96401 -5.83471e-20)
(5.43528 3.12247 3.64683e-19)
(6.69291 -0.386935 2.05102e-20)
(6.98559 -1.83629 3.79936e-21)
(5.99036 3.18744 0)
(5.3904 -0.590824 0)
(7.45164 -0.335165 0)
(6.08825 -2.46971 -5.98232e-20)
(2.34707 -2.21233 -1.94664e-20)
(2.49754 -2.09354 7.99146e-19)
(6.77645 -0.688992 0)
(6.79468 -0.765961 9.99961e-18)
(4.56343 -2.01662 -4.9758e-19)
(5.50473 3.16386 2.45931e-19)
(2.88855 -1.09658 5.47444e-19)
(7.02613 -0.167237 -9.05819e-20)
(3.79282 -2.36402 0)
(5.33795 3.10298 0)
(5.32842 3.08592 -1.31157e-18)
(5.52647 2.72431 0)
(5.21898 -3.39011 -4.23127e-18)
(5.28976 3.19592 0)
(5.52373 3.11605 -2.12468e-19)
(6.30449 -0.278909 0)
(4.31552 -0.642736 2.90397e-19)
(4.26658 -0.66601 1.4594e-19)
(6.11639 -0.545157 2.63266e-19)
(6.96611 -0.170721 0)
(6.95046 -0.149736 0)
(7.00582 -0.145384 8.37947e-20)
(5.75252 -2.80974 8.22518e-18)
(6.43011 -0.172964 9.80772e-21)
(7.47029 -0.936307 0)
(7.44069 -0.879864 -3.32865e-20)
(2.63899 -1.77949 3.63018e-18)
(6.43854 -0.3269 -2.3073e-20)
(6.4437 -0.30707 0)
(3.07466 -0.488087 6.56846e-18)
(3.05791 -0.280233 0)
(7.57386 -0.671685 -2.61286e-19)
(7.55663 -0.636078 -1.65692e-19)
(5.25407 3.0708 -1.46648e-19)
(6.73678 -1.93349 1.12455e-18)
(3.95626 -0.75891 7.07983e-19)
(5.73638 3.08481 -6.64609e-20)
(5.56805 3.14706 7.51317e-19)
(6.12485 2.99605 1.4108e-18)
(7.23895 -1.19854 -4.98714e-21)
(2.71546 -4.3842 6.06854e-18)
(6.52214 -0.274186 4.74879e-20)
(6.52751 -0.29673 -2.47261e-20)
(5.45261 2.79663 -8.64923e-20)
(6.94332 -1.86128 0)
(6.84767 -1.9247 3.51568e-20)
(3.4135 -2.62879 9.35917e-19)
(0.741859 -0.444015 -6.72888e-18)
(4.41406 -0.294209 9.69532e-19)
(7.55329 -1.16324 3.34593e-19)
(5.7336 -2.63603 -1.47241e-19)
(5.73311 -2.69379 3.584e-19)
(4.13056 -0.0892781 -4.25904e-19)
(4.07914 0.136403 -5.35195e-19)
(6.99797 -1.77925 -3.2927e-21)
(6.98173 -1.74405 2.48548e-20)
(7.0242 -4.01857 0)
(7.48568 -4.81754 0)
(7.15424 -1.16442 8.23265e-20)
(7.39991 -0.887379 2.6999e-19)
(7.1236 0.0668258 0)
(3.12086 -0.619105 -2.40427e-18)
(6.69074 -0.143348 0)
(7.3288 -3.18787 4.69535e-19)
(0.685718 -0.488602 2.65407e-17)
(7.28006 -4.21527 0)
(5.90599 3.15736 -8.66745e-20)
(2.36339 -2.23742 -3.41516e-19)
(2.42696 -2.32266 1.44743e-18)
(6.05497 3.21375 0)
(6.03563 3.20221 -2.45796e-19)
(6.78836 2.50043 0)
(5.09955 -0.881783 0)
(6.25973 -0.561723 -5.93093e-20)
(8.36 -2.59317 9.11084e-19)
(7.51064 -1.85942 0)
(7.16772 -1.87133 0)
(6.31246 -0.39567 -6.5402e-20)
(6.0832 -1.85903 2.24274e-19)
(4.07559 -0.485784 -2.00553e-18)
(6.70416 -1.60056 2.8243e-21)
(7.87399 -2.24789 -4.0018e-19)
(7.9337 -2.25074 0)
(5.96561 -0.196188 0)
(2.2414 -3.98539 9.06827e-18)
(2.14552 -0.51488 -1.68895e-18)
(5.37484 3.12267 -3.52358e-19)
(6.31355 -2.26204 6.3355e-20)
(5.25705 2.98684 0)
(4.32682 -0.395852 3.74384e-19)
(4.49326 -0.468873 7.35393e-19)
(6.86612 -1.2371 -9.41075e-20)
(5.90778 -0.366209 1.55219e-19)
(6.76618 -1.7937 -3.30126e-21)
(6.77223 -1.85036 5.04647e-20)
(6.83718 0.0124409 -1.94698e-20)
(6.30571 -0.532935 -1.09557e-19)
(6.46214 -0.360987 0)
(6.50785 -0.346287 3.11914e-20)
(5.13947 -2.97484 0)
(4.96066 -2.95764 0)
(4.11765 -0.750719 0)
(2.9189 0.287565 -3.58775e-18)
(2.89002 0.241636 0)
(2.88736 0.402956 0)
(6.91433 -0.875423 2.07167e-20)
(5.52778 3.16968 -1.02433e-19)
(5.46823 2.81301 -4.78503e-20)
(4.15897 -1.26751 0)
(4.05746 -1.24183 3.29652e-19)
(5.42014 -0.601108 0)
(5.82896 3.14256 -2.25181e-21)
(4.45563 -0.05298 0)
(3.24547 -1.08179 3.90182e-18)
(5.31147 -0.93448 1.07097e-18)
(5.3543 -0.94671 -4.62147e-20)
(7.05468 -0.248546 -9.5113e-20)
(6.80817 0.663546 7.68782e-18)
(6.8006 3.12325 1.00136e-18)
(5.1013 -0.844224 0)
(5.12824 -0.868498 0)
(6.60866 0.230275 2.35915e-21)
(5.84752 3.15802 0)
(5.75989 -1.92278 0)
(6.33452 -1.18644 -5.90255e-21)
(6.35523 -1.90353 -3.85483e-19)
(6.13693 -0.358998 -6.84079e-20)
(6.13755 -0.381452 1.02767e-19)
(3.71967 -0.607916 -3.92191e-19)
(6.52671 -1.87096 1.99802e-20)
(6.38382 -4.18335 -2.05302e-19)
(5.88352 2.96674 5.52988e-20)
(5.84205 -1.8437 2.36133e-19)
(6.63083 -0.537492 8.80967e-21)
(6.59662 -0.543831 -5.30584e-20)
(4.2979 -0.0234604 -7.36232e-19)
(5.00384 -0.649354 0)
(4.97716 -0.630865 -1.0774e-21)
(4.72972 -3.83383 6.38763e-19)
(6.47999 0.395941 0)
(5.93861 2.98343 1.52773e-19)
(3.85104 -2.22069 0)
(3.89152 -2.2824 5.85637e-19)
(4.78047 -0.73291 -1.25882e-19)
(6.36851 -0.334341 0)
(6.40074 -0.31394 0)
(5.92269 2.83737 2.53972e-20)
(5.83496 2.94953 5.2867e-20)
(5.79021 2.97322 8.85299e-20)
(4.54346 -4.1448 -4.95601e-19)
(7.19582 -0.244614 -8.29781e-20)
(7.24333 -0.216094 0)
(8.31237 -2.64249 1.74654e-18)
(6.90861 -1.84193 -4.24596e-20)
(6.90436 -1.78631 -1.8546e-20)
(6.85315 -1.87806 9.65613e-20)
(6.00438 -0.680931 4.28252e-20)
(5.99817 -0.651942 0)
(6.16988 -0.714984 0)
(6.16526 -0.741061 0)
(6.98669 -1.19572 0)
(7.00307 -1.16568 0)
(7.28085 0.233964 1.28294e-19)
(4.9815 2.97722 3.91029e-19)
(5.46095 3.11345 -5.49617e-19)
(5.45527 3.12034 0)
(6.79687 -1.99818 1.47642e-18)
(6.13995 -1.10039 0)
(7.2557 -4.73094 0)
(5.08413 -0.76651 4.136e-19)
(5.7099 -1.89031 -2.94817e-19)
(5.45918 -1.91781 6.03841e-19)
(7.23704 -4.50915 1.77508e-19)
(6.19416 -1.98911 2.02567e-19)
(7.36108 -2.00803 0)
(5.90945 2.99074 5.61607e-20)
(5.93336 2.91318 0)
(7.575 -1.9376 -2.3477e-19)
(7.48547 -1.41287 -3.48205e-19)
(6.45594 -0.263371 1.66818e-20)
(4.99414 -0.891132 0)
(6.72724 -4.31807 3.47868e-19)
(5.31427 2.70089 0)
(5.28155 2.65093 3.80033e-18)
(5.80156 -1.96231 -6.70525e-20)
(5.26916 -0.834993 7.4931e-19)
(7.11712 0.123968 0)
(1.49208 -1.1326 0)
(6.45169 1.7619 0)
(6.35151 1.86881 0)
(6.25574 -1.99265 3.027e-19)
(6.29392 -0.25129 2.19359e-20)
(6.26308 -0.268049 -6.66828e-21)
(5.67795 3.12279 6.09957e-19)
(5.67499 3.09823 -7.92053e-20)
(6.43733 -0.497856 0)
(5.82136 2.63791 -3.6958e-18)
(7.60754 0.0828495 0)
(7.54964 0.0200355 4.61029e-19)
(6.08048 -0.402878 0)
(5.39781 2.92415 0)
(5.33805 2.9912 1.2599e-19)
(6.69102 -1.48892 1.91525e-20)
(5.43897 3.08879 2.75722e-19)
(5.39672 3.09136 0)
(6.48912 -1.7566 -1.28744e-19)
(7.31829 -1.2736 8.30236e-20)
(7.39072 -1.17616 2.20794e-19)
(6.00758 2.8794 -6.00857e-20)
(6.00171 2.89111 0)
(6.82058 -0.236037 -5.95181e-22)
(7.31509 0.0800374 -8.21723e-21)
(7.29893 0.126302 7.50569e-21)
(6.39972 -1.9442 -1.8586e-19)
(6.34175 -2.01918 0)
(2.35713 -0.663505 0)
(2.8987 -2.14224 -9.15636e-19)
(2.69846 -2.33049 1.12104e-18)
(6.73608 -2.03927 -1.59533e-20)
(3.09854 0.249629 0)
(5.49098 3.15405 2.99869e-21)
(5.49778 3.14681 -2.47307e-19)
(2.46435 -2.64384 0)
(2.33629 -2.83691 -2.7887e-18)
(6.47089 -1.93385 -1.41943e-20)
(6.49006 -1.87764 5.57018e-20)
(6.42113 -1.92122 1.64679e-19)
(4.39949 -0.790073 1.20933e-18)
(4.19832 -0.77528 6.99964e-19)
(5.89047 -1.8405 8.12124e-19)
(6.9317 -0.407926 4.53872e-20)
(6.46534 -0.535399 -4.52247e-21)
(5.49811 -1.89345 0)
(5.4102 -1.88515 0)
(5.62704 -1.88104 0)
(2.53509 -1.95658 6.7736e-19)
(2.60886 -2.02192 1.90529e-18)
(6.99272 -1.57738 0)
(6.46385 -1.61141 -4.92271e-20)
(7.85133 -0.38223 -9.42779e-20)
(7.87758 -0.3982 0)
(6.17574 -1.52682 -2.18568e-19)
(6.18297 -1.57005 1.39845e-19)
(6.70417 -1.92186 -7.48476e-19)
(6.60784 -1.89624 6.23497e-19)
(6.8311 -1.93121 0)
(4.68643 -0.585057 4.67982e-19)
(4.63552 -0.537328 3.51014e-19)
(2.2397 -3.44309 0)
(6.16815 -1.88064 -5.063e-19)
(5.41577 3.09317 7.42043e-20)
(5.68646 2.37497 5.24491e-18)
(3.31301 -2.38391 7.01315e-19)
(3.38082 -2.45352 0)
(2.75745 -3.2094 -6.6172e-18)
(7.54525 -0.993787 3.31309e-19)
(7.22003 -0.491917 1.64541e-19)
(7.30012 -0.482905 5.56975e-20)
(6.17283 -0.389897 -1.5782e-19)
(3.01293 -0.555588 -6.79002e-18)
(6.65474 3.57312 0)
(6.72708 3.5452 0)
(6.66065 -0.629806 -1.19363e-17)
(6.71631 -0.699392 0)
(7.95136 -2.06194 0)