/*--------------------------------*- C++ -*----------------------------------*\
  =========                 |
  \\      /  F ield         | OpenFOAM: The Open Source CFD Toolbox
   \\    /   O peration     | Website:  https://openfoam.org
    \\  /    A nd           | Version:  6
     \\/     M anipulation  |
\*---------------------------------------------------------------------------*/
FoamFile
{
    version     2.0;
    format      ascii;
    class       volScalarField;
    location    "100";
    object      nut;
}
// * * * * * * * * * * * * * * * * * * * * * * * * * * * * * * * * * * * * * //

dimensions      [0 2 -1 0 0 0 0];

internalField   nonuniform List<scalar> 
29874
(
0.25329
0.209037
0.121554
0.155388
0.177329
0.24299
0.217962
0.141059
0.152894
0.141857
0.270185
0.259912
0.1835
0.264451
0.266588
0.285103
0.177972
0.27604
0.118825
0.141921
0.140659
0.143779
0.140444
0.15343
0.144532
0.176589
0.217369
0.143944
0.234884
0.234572
0.227587
0.195158
0.192158
0.221498
0.151269
0.158075
0.142166
0.162922
0.164274
0.200842
0.139845
0.139614
0.145163
0.133107
0.189758
0.160243
0.179338
0.246254
0.240634
0.241357
0.194897
0.29021
0.268031
0.278875
0.197896
0.191704
0.134809
0.169865
0.166068
0.172016
0.163805
0.149093
0.14747
0.167434
0.123464
0.189844
0.23892
0.176752
0.263042
0.284793
0.154945
0.148344
0.144382
0.109381
0.2855
0.227244
0.229974
0.224415
0.183184
0.164433
0.192226
0.130686
0.138079
0.146867
0.0944634
0.108357
0.148825
0.140892
0.186211
0.161462
0.0715398
0.139373
0.138369
0.143716
0.131673
0.138051
0.135401
0.0972923
0.0639402
0.153012
0.150941
0.1385
0.138594
0.167403
0.211664
0.0645945
0.0755459
0.154086
0.159109
0.142525
0.0734986
0.193939
0.203201
0.138278
0.138276
0.138601
0.134423
0.150329
0.000985597
0.142155
0.13963
0.177798
0.130492
0.13006
0.132775
0.138424
0.151732
0.146939
0.141959
0.134665
0.140002
0.136679
0.150023
0.143144
0.143518
0.143209
0.146219
0.139895
0.14402
0.234894
0.201166
0.172314
0.279957
0.169578
0.149522
0.152086
0.170776
0.182859
0.139767
0.275935
0.245007
0.238305
0.29529
0.145657
0.137998
0.140006
0.149815
0.160674
0.182212
0.183699
0.165602
0.180829
0.222437
0.163506
0.216981
0.190878
0.172408
0.149768
0.148926
0.154465
0.194746
0.173503
0.1648
0.0913068
0.079614
0.155092
0.14755
0.000315381
0.147449
0.144633
0.000280546
0.000254415
0.16034
0.142842
0.140651
0.159121
0.138256
0.138525
0.140734
0.138381
0.138262
0.190418
0.144474
0.139041
0.170694
0.143185
0.141743
0.155085
0.000479201
0.000878876
0.152407
0.15091
0.176789
0.163642
0.140926
0.138776
0.140475
0.216531
0.146227
0.139597
0.142396
0.145682
0.133475
0.14141
0.143191
0.145653
0.145035
0.140771
0.144929
0.152773
0.235688
0.197449
0.197858
0.16211
0.139529
0.146019
0.151431
0.149349
0.161534
0.138871
0.139927
0.139955
0.136936
0.139881
0.144102
0.146116
0.134908
0.170152
0.158425
0.195942
0.198685
0.00676103
0.056093
0.101233
0.106993
0.0865825
0.0886167
0.136619
0.131395
0.114171
0.0819734
0.126586
0.133981
0.107628
0.109829
0.0564881
0.111541
0.00107302
0.113084
0.113823
0.116125
0.107445
0.111457
0.13427
0.135795
0.125032
0.127901
0.114877
0.111297
0.000628069
0.0806562
0.0833446
0.139805
0.143026
0.107948
0.0812173
0.0872968
0.00105754
0.103146
0.127784
0.126695
0.126231
0.126063
0.121412
0.121121
0.133822
0.124754
0.124913
0.0585109
0.0609825
0.0840714
0.0991974
0.0974184
0.139876
0.138339
0.118959
0.119282
0.10229
0.13792
0.132786
0.134412
0.0874361
0.116765
0.0861769
0.0977327
0.112249
0.0758372
0.127442
0.095601
0.0141058
0.121618
0.122039
0.0943866
0.0979353
0.0889133
0.114155
0.115274
0.125015
0.113547
0.111359
0.132282
0.12874
0.0832236
0.0517487
0.109842
0.10773
0.110509
0.138327
0.118929
0.119103
0.135564
0.136194
0.0989123
0.0943256
0.124725
0.11463
0.110695
0.112154
0.112309
0.110671
0.0816166
0.0827901
0.0558066
0.0556303
0.0537502
0.0571793
0.115726
0.115815
0.126518
0.102271
0.127865
0.122604
0.13823
0.140246
0.138633
0.109765
0.0559531
0.0540472
0.107666
0.000682358
0.142573
0.083765
0.143662
0.0598527
0.0683028
0.101217
0.102426
0.103644
0.131883
0.0607728
0.057932
0.0609351
0.0572701
0.13928
0.130872
0.0623286
0.069363
0.0681091
0.0607151
0.0711391
0.0836238
0.0823458
0.120252
0.130918
0.109863
0.109796
0.147856
0.112935
0.114529
0.111698
0.136479
0.137434
0.0590143
0.142569
0.138298
0.124255
0.123009
0.1248
0.122123
0.137796
0.128695
0.129411
0.131613
0.126351
0.122273
0.130054
0.0516841
0.0525764
0.0504793
0.0532775
0.0885808
0.0814527
0.0845623
0.0861173
0.136553
0.0555132
0.0684834
0.0798469
0.0830107
0.0483806
0.0467331
0.0468738
0.0802841
0.0679397
0.0854927
0.0816427
0.0801487
0.0876771
0.126879
0.12677
0.124601
0.123027
0.126154
0.121366
0.0908596
0.131304
0.122667
0.0820398
0.0958781
0.0692199
0.0762707
0.0707302
0.0738749
0.0678793
0.0720794
0.139182
0.139829
0.137729
0.13642
0.140198
0.066183
0.0638311
0.0669787
0.0795904
0.0894438
0.0839723
0.119223
0.121829
0.122851
0.118274
0.136561
0.136097
0.137493
0.134607
0.112179
0.11177
0.109179
0.078699
0.150647
0.143363
0.14706
0.147588
0.0845886
0.112581
0.104193
0.103194
0.106562
0.0731849
0.0778178
0.0705267
0.150494
0.0587493
0.0652101
0.0626087
0.0608255
0.137932
0.0722042
0.0790407
0.0773216
0.074383
0.166155
0.000619878
0.136935
0.19422
0.000826304
0.138575
0.167815
0.139501
0.139314
0.139376
0.169159
0.133726
0.137735
0.138502
0.152783
0.134136
0.132495
0.138219
0.136403
0.140893
0.138222
0.137847
0.115399
0.138429
0.138192
0.0134536
0.139025
0.142412
0.000970268
0.138511
0.138572
0.140595
0.114358
0.138986
0.137812
0.145258
0.134917
0.139144
0.130993
0.133219
0.125878
0.151204
0.128316
0.123867
0.13138
0.128333
0.138911
0.130127
0.127219
0.121393
0.137715
0.137636
0.00102062
0.0197598
0.156192
0.164918
0.138572
0.124443
0.12208
0.13907
0.133283
0.139624
0.139344
0.138345
0.142114
0.141555
0.143914
0.123036
0.139026
0.224181
0.125083
0.147728
0.14993
0.15427
0.138672
0.0315932
0.130103
0.131491
0.0996775
0.105595
0.0786475
0.149119
0.140501
0.235048
0.203022
0.138298
0.138578
0.138184
0.0947529
0.158553
0.14666
0.127937
0.12603
0.145595
0.118175
0.119936
0.148922
0.139802
0.126745
0.136625
0.133318
0.158902
0.147974
0.0732541
0.0675591
0.117813
0.119278
0.142997
0.13996
0.00220027
0.149638
0.181871
0.142076
0.140175
0.139781
0.13921
0.139733
0.126415
0.134018
0.138726
0.0679604
0.067128
0.0660615
0.138882
0.137875
0.138128
0.13767
0.139945
0.143695
0.147946
0.151348
0.0864121
0.139262
0.137916
0.145279
0.153363
0.0726795
0.07721
0.121306
0.118036
0.160883
0.218937
0.158917
0.177243
0.137995
0.138241
0.109601
0.113352
0.11677
0.0838569
0.0901592
0.137502
0.137335
0.137063
0.169474
0.140975
0.138713
0.138435
0.133546
0.135508
0.139217
0.138694
0.131904
0.132353
0.130541
0.139637
0.136311
0.145225
0.148707
0.00119505
0.0154814
0.115764
0.115801
0.122618
0.0661603
0.0650299
0.168049
0.17034
0.158172
0.017789
0.0213502
0.135696
0.111047
0.135277
0.093638
0.134282
0.0272937
0.102084
0.0665619
0.119262
0.118439
0.13471
0.129853
0.130932
0.111683
0.109247
0.134938
0.111941
0.124879
0.090659
0.119659
0.130785
0.130547
0.130716
0.130762
0.130517
0.0896348
0.0134946
0.0382492
0.0128347
0.00821727
0.103264
0.123687
0.123938
0.128871
0.0700343
0.123512
0.0878196
0.127769
0.080539
0.135093
0.104995
0.103674
0.0971672
0.108394
0.123263
0.0449939
0.0541615
0.130091
0.0881749
0.0644682
0.0649047
0.0933104
0.105884
0.110128
0.126157
0.0978797
0.0523499
0.127391
0.127587
0.134497
0.13479
0.123596
0.12346
0.0796249
0.131113
0.131206
0.0486564
0.134153
0.0859309
0.00192108
0.064456
0.129752
0.115546
0.00175015
0.00168011
0.131918
0.111648
0.0511023
0.00756676
0.0897497
0.0904103
0.126306
0.108218
0.108671
0.114628
0.130063
0.100627
0.0429025
0.0407908
0.120447
0.135172
0.135118
0.101667
0.0965985
0.0946085
0.0938621
0.122712
0.128936
0.10133
0.108049
0.081583
0.128098
0.0490715
0.0657583
0.0739939
0.128815
0.131868
0.111017
0.13173
0.111009
0.115005
0.133457
0.11535
0.113238
0.134494
0.120294
0.13562
0.134509
0.118639
0.11483
0.113939
0.126681
0.127514
0.113212
0.0440882
0.10389
0.00335214
0.0972684
0.131708
0.104561
0.120583
0.118497
0.0705934
0.111523
0.0882032
0.133284
0.0332719
0.121672
0.12624
0.131655
0.117929
0.11786
0.102126
0.103156
0.127754
0.117916
0.11778
0.0845458
0.126851
0.135636
0.129662
0.0641801
0.101543
0.0914169
0.113537
0.123775
0.125958
0.130961
0.13153
0.0854549
0.0877844
0.129679
0.092937
0.0939649
0.131997
0.13123
0.11813
0.0968305
0.0942759
0.115084
0.119965
0.122049
0.0781614
0.135011
0.135635
0.13558
0.12625
0.124719
0.12966
0.12846
0.104311
0.125544
0.125464
0.0280285
0.0267163
0.0253253
0.129858
0.134337
0.132787
0.135395
0.130895
0.122074
0.124259
0.136138
0.12161
0.125816
0.124855
0.0985063
0.0959721
0.134643
0.121865
0.116816
0.126756
0.114183
0.111985
0.105999
0.111385
0.102129
0.128236
0.128183
0.0481771
0.128343
0.108411
0.123956
0.122763
0.116628
0.113413
0.11469
0.115615
0.0984251
0.124985
0.127236
0.124703
0.125963
0.125411
0.122452
0.129483
0.0369688
0.10216
0.0948001
0.0923475
0.0760899
0.0761741
0.131782
0.108662
0.127889
0.129966
0.132309
0.135203
0.0926639
0.117563
0.12538
0.0658488
0.11216
0.133793
0.108885
0.109679
0.110729
0.129741
0.124534
0.0853739
0.127455
0.128451
0.116685
0.127649
0.124623
0.115721
0.103922
0.126444
0.119889
0.0969368
0.0569244
0.0589895
0.0237955
0.125414
0.124934
0.126941
0.0190623
0.121664
0.120952
0.131548
0.123283
0.106462
0.104053
0.132711
0.121992
0.0648282
0.0398428
0.135633
0.125672
0.128521
0.0809118
0.0744992
0.130111
0.130065
0.130499
0.135106
0.0636507
0.105194
0.100481
0.0661632
0.100345
0.0938718
0.0781603
0.0728783
0.131376
0.134897
0.0726522
0.0684971
0.108653
0.0231787
0.116184
0.0643355
0.0685539
0.0591635
0.105656
0.133254
0.116364
0.1181
0.116202
0.0975669
0.131188
0.130506
0.129095
0.128957
0.122149
0.121
0.107857
0.109803
0.107321
0.11359
0.111595
0.0915557
0.128987
0.128995
0.128687
0.130395
0.10849
0.109271
0.0438066
0.036128
0.117786
0.105418
0.10158
0.115414
0.109332
0.09299
0.0895561
0.101907
0.0441112
0.0703417
0.113537
0.133023
0.134642
0.131243
0.0933232
0.106282
0.109355
0.101263
0.100567
0.0997924
0.137678
0.105453
0.103295
0.126317
0.120969
0.0894687
0.090616
0.0819229
0.0825083
0.134443
0.133108
0.0573808
0.105078
0.135527
0.135646
0.135567
0.116755
0.110669
0.112388
0.122586
0.120784
0.127694
0.127863
0.101464
0.12526
0.126237
0.124349
0.125509
0.0985177
0.0955773
0.135417
0.135511
0.135276
0.135657
0.123701
0.124655
0.123559
0.121701
0.123864
0.132897
0.11436
0.104072
0.00250243
0.135652
0.0924466
0.0897979
0.102525
0.102261
0.102942
0.132751
0.132333
0.132645
0.0406167
0.0849315
0.086021
0.0875654
0.10148
0.104703
0.100988
0.126342
0.119895
0.12088
0.134131
0.0514692
0.133452
0.0881728
0.119373
0.124315
0.109942
0.12181
0.0560554
0.125261
0.125314
0.124731
0.0948749
0.0909129
0.0981413
0.0926614
0.105865
0.103141
0.0900802
0.0883672
0.0670682
0.070538
0.0649835
0.0688067
0.133676
0.133417
0.104339
0.106552
0.125004
0.102102
0.0982249
0.0996212
0.124504
0.122984
0.123385
0.0301417
0.0536201
0.0013405
0.13189
0.13107
0.102537
0.120576
0.00130531
0.113905
0.111775
0.12209
0.112913
0.115683
0.115374
0.112881
0.131141
0.131783
0.131273
0.132223
0.11715
0.11643
0.129737
0.0664775
0.112946
0.114653
0.00102706
0.132828
0.132454
0.133119
0.129476
0.0940629
0.0905392
0.0954794
0.0549949
0.0992201
0.096616
0.130944
0.130686
0.135788
0.105624
0.108922
0.107904
0.100827
0.100493
0.0997202
0.0534354
0.131655
0.131177
0.112672
0.113742
0.115059
0.000936399
0.0929601
0.1284
0.1271
0.10355
0.10197
0.102617
0.102986
0.131236
0.130974
0.0764418
0.0678393
0.107864
0.00196436
0.134979
0.134657
0.135545
0.135251
0.135829
0.00124477
0.0928154
0.0881167
0.000668168
0.000673172
0.00519323
0.134816
0.134874
0.134647
0.123476
0.103376
0.108072
0.0953422
0.134531
0.123048
0.123736
0.122489
0.130369
0.130192
0.0962377
0.000462533
0.0984193
0.133178
0.133241
0.131344
0.0388191
0.0402803
0.11937
0.117142
0.118468
0.0956829
0.0968633
0.0966292
0.125324
0.000907628
0.0615494
0.0846175
0.106054
0.10317
0.0673238
0.0622574
0.106822
0.107841
0.07984
0.130243
0.130401
0.129887
0.128313
0.128801
0.106012
0.099321
0.124499
0.000434131
0.00047578
0.135659
0.101379
0.0992972
0.0475578
0.0485658
0.122863
0.0991622
0.0964913
0.104913
0.105639
0.102111
0.133419
0.13263
0.0706341
0.134644
0.033288
0.135709
0.135657
0.127348
0.126875
0.112118
0.108833
0.000716152
0.00206118
0.128966
0.134034
0.133969
0.000689189
0.134801
0.135073
0.13383
0.131519
0.129283
0.131222
0.134156
0.0912955
0.0941523
0.102055
0.100813
0.102898
0.100658
0.0873866
0.0937075
0.0941238
0.0948304
0.0927927
0.0985556
0.0988138
0.101806
0.12844
0.128293
0.12767
0.135352
0.0990279
0.0997122
0.000389657
0.00125262
0.132161
0.133016
0.133057
0.131963
0.104962
0.134157
0.132973
0.133138
0.126222
0.1231
0.123589
0.038519
0.0355974
0.0381049
0.0352961
0.131525
0.134437
0.1341
0.134635
0.121827
0.122977
0.122155
0.12263
0.100288
0.101592
0.103004
0.0988684
0.105567
0.11035
0.105002
0.000572369
0.00215434
0.108061
0.10852
0.123287
0.121283
0.122003
0.122606
0.084666
0.0929825
0.112084
0.114139
0.108117
0.107956
0.0895147
0.0916921
0.135491
0.134131
0.135282
0.134709
0.133467
0.133019
0.0951846
0.0917765
0.106703
0.103877
0.109195
0.106807
0.106189
0.109522
0.11613
0.112148
0.114049
0.113983
0.0796277
0.0689526
0.0961165
0.0949586
0.0960929
0.0944449
0.0866329
0.132036
0.132116
0.133413
0.00238749
0.0898725
0.0871917
0.0948693
0.116882
0.117855
0.114257
0.117923
0.119476
0.10942
0.111507
0.129357
0.131194
0.128848
0.116384
0.119336
0.118513
0.11194
0.132766
0.133007
0.132604
0.133239
0.120334
0.118291
0.120548
0.110831
0.112992
0.111009
0.125057
0.126047
0.125992
0.12506
0.133894
0.13362
0.134012
0.110189
0.107414
0.108611
0.132289
0.122313
0.120226
0.119965
0.122528
0.131682
0.131499
0.130936
0.132191
0.0998
0.107
0.10943
0.116661
0.119039
0.116728
0.0357873
0.0364911
0.147722
0.0924651
0.0694896
0.0766818
0.112007
0.110565
0.0405095
0.0542741
0.12975
0.128489
0.112562
0.114633
0.136836
0.137081
0.0692389
0.131034
0.129146
0.130493
0.133094
0.13156
0.0749716
0.118734
0.118031
0.0734455
0.0830184
0.136529
0.13324
0.132886
0.133122
0.133034
0.0385139
0.03819
0.135913
0.135897
0.136198
0.135494
0.0896346
0.0983153
0.103471
0.0383651
0.131339
0.130287
0.0961204
0.0977635
0.0969376
0.0471262
0.0420817
0.0483692
0.13547
0.135034
0.0882203
0.0879329
0.086419
0.103457
0.104605
0.104253
0.103652
0.131994
0.13261
0.132372
0.0720924
0.0725602
0.122333
0.120668
0.120895
0.0950221
0.098369
0.13204
0.131952
0.132255
0.131703
0.127175
0.123216
0.124985
0.125555
0.0957426
0.0887205
0.0857708
0.126959
0.126014
0.126377
0.126703
0.112979
0.112144
0.113729
0.111438
0.135424
0.135511
0.135516
0.125206
0.125178
0.126188
0.1281
0.128248
0.128559
0.12777
0.0615629
0.0584276
0.055429
0.0655546
0.100184
0.117814
0.113032
0.113207
0.127225
0.128025
0.12736
0.119991
0.117764
0.110857
0.108189
0.109342
0.109726
0.0552409
0.0479125
0.0843249
0.0830075
0.0825058
0.0847782
0.0845852
0.0857035
0.0823283
0.1033
0.118595
0.1089
0.107433
0.119779
0.117877
0.119019
0.11067
0.107261
0.136229
0.0783278
0.080424
0.076648
0.121911
0.119365
0.120939
0.113547
0.11262
0.113955
0.112087
0.111227
0.112541
0.113688
0.123412
0.125119
0.125761
0.0936924
0.0900502
0.0793961
0.0857252
0.0843525
0.105482
0.109198
0.108087
0.106369
0.102773
0.0961292
0.100729
0.099266
0.101188
0.0997962
0.100893
0.0889764
0.120375
0.0966559
0.0970569
0.0941184
0.135549
0.135215
0.135432
0.135403
0.11744
0.118456
0.118759
0.117195
0.119639
0.11909
0.121559
0.0284386
0.0265597
0.0309247
0.130809
0.130641
0.129948
0.13039
0.132014
0.11117
0.111015
0.135021
0.108584
0.134717
0.128249
0.124194
0.12633
0.125881
0.124798
0.135682
0.135661
0.0856386
0.0877099
0.0853971
0.115687
0.116388
0.117482
0.117911
0.120552
0.118911
0.1195
0.0481987
0.051148
0.0503077
0.0492441
0.0822858
0.0737233
0.0780033
0.126838
0.128415
0.126628
0.133576
0.13315
0.120076
0.120753
0.102432
0.0973605
0.0979544
0.095787
0.0934982
0.0947329
0.0846853
0.125311
0.126603
0.126316
0.125605
0.125995
0.130152
0.129437
0.12966
0.129494
0.128131
0.135422
0.135442
0.135
0.129895
0.130118
0.129747
0.107846
0.109442
0.108025
0.109182
0.116688
0.117972
0.133199
0.133643
0.134491
0.129477
0.129677
0.12897
0.110267
0.113449
0.109265
0.116647
0.118493
0.119719
0.115456
0.0238159
0.0286889
0.124623
0.100934
0.0881114
0.0264773
0.0893724
0.0890896
0.0916619
0.000857683
0.0389143
0.126468
0.127025
0.127235
0.135341
0.135396
0.127053
0.0467561
0.0927657
0.0962406
0.0948733
0.0941
0.117115
0.116575
0.118622
0.115659
0.113411
0.114587
0.132966
0.133195
0.0919982
0.0900363
0.0915498
0.0906771
0.125077
0.12437
0.125655
0.104396
0.102269
0.102694
0.104201
0.0913956
0.091649
0.117824
0.113826
0.127173
0.0794077
0.0801588
0.0776319
0.0819154
0.0825906
0.0733031
0.131607
0.130094
0.131321
0.130212
0.127976
0.135627
0.1356
0.0862404
0.102855
0.102703
0.103063
0.102827
0.113165
0.11245
0.114387
0.0590769
0.059985
0.13327
0.133929
0.13277
0.123753
0.124676
0.123718
0.124627
0.0735164
0.0744183
0.12323
0.115926
0.124869
0.101868
0.101091
0.102525
0.1161
0.118902
0.117512
0.117418
0.122852
0.122712
0.0696659
0.120233
0.118992
0.119996
0.119393
0.130333
0.123341
0.0941635
0.0931864
0.123019
0.123852
0.123843
0.122998
0.133106
0.132551
0.132851
0.13284
0.118349
0.122507
0.124431
0.126709
0.129091
0.128518
0.127109
0.121302
0.123014
0.129605
0.107213
0.105805
0.108348
0.126668
0.125799
0.126297
0.126238
0.0479559
0.105421
0.101024
0.0760036
0.0683099
0.13697
0.136362
0.136507
0.137091
0.0759572
0.0165957
0.125519
0.12388
0.0883841
0.107984
0.109204
0.108965
0.0968989
0.0994076
0.0759454
0.0787593
0.0465202
0.0420608
0.11471
0.13472
0.133915
0.134713
0.134676
0.117249
0.114883
0.116457
0.120446
0.119378
0.120327
0.119423
0.12267
0.123916
0.0977592
0.104103
0.104798
0.10582
0.102972
0.0938502
0.0953573
0.0924701
0.096683
0.138479
0.0937387
0.0943233
0.0946558
0.0930019
0.0522039
0.118371
0.111232
0.114836
0.115395
0.118782
0.118813
0.121007
0.116467
0.137693
0.137873
0.129595
0.130662
0.130561
0.0667017
0.062667
0.0957454
0.123225
0.121936
0.12215
0.122969
0.127127
0.127639
0.0399577
0.103752
0.102863
0.0981447
0.102592
0.0975307
0.112612
0.110408
0.114082
0.000368852
0.131829
0.132067
0.131334
0.109025
0.100133
0.13395
0.117673
0.126586
0.127462
0.126629
0.107485
0.104273
0.120442
0.121708
0.120436
0.124824
0.129663
0.130218
0.128823
0.127251
0.127794
0.12708
0.11998
0.114506
0.112824
0.113124
0.114256
0.062959
0.0608256
0.0601813
0.0645352
0.000511115
0.121997
0.1231
0.123045
0.0693369
0.0670238
0.0712227
0.0492542
0.0236402
0.0950363
0.131608
0.132094
0.13122
0.131251
0.111584
0.112653
0.110234
0.103312
0.104034
0.10261
0.10465
0.108733
0.126993
0.127833
0.127604
0.127235
0.0972498
0.100118
0.126725
0.126381
0.104546
0.106132
0.105693
0.104783
0.086127
0.0915556
0.087816
0.0998094
0.100366
0.0985734
0.101497
0.13428
0.133003
0.132431
0.134462
0.0737339
0.133111
0.132339
0.132619
0.0342457
0.0710661
0.0774133
0.0744363
0.0739634
0.113462
0.117212
0.11273
0.119991
0.122014
0.120657
0.122822
0.120872
0.12489
0.123874
0.12085
0.127342
0.12974
0.129323
0.129718
0.129344
0.129369
0.128902
0.129119
0.129174
0.117151
0.119959
0.118672
0.11845
0.0288581
0.0262787
0.0325924
0.0407725
0.0697048
0.0721915
0.115082
0.113261
0.113881
0.114492
0.10789
0.108291
0.10786
0.107143
0.109151
0.134807
0.135497
0.134013
0.134305
0.134911
0.133648
0.134557
0.133866
0.0414821
0.0861919
0.0863619
0.13353
0.133756
0.133365
0.12803
0.127909
0.129102
0.000312002
0.133931
0.132246
0.132569
0.130461
0.134777
0.13509
0.134535
0.107301
0.108792
0.108385
0.135328
0.126222
0.127118
0.126358
0.126963
0.000494953
0.136457
0.135662
0.136977
0.13504
0.0699381
0.0672578
0.0717392
0.119334
0.121092
0.130026
0.128849
0.0740936
0.129284
0.128724
0.128872
0.129153
0.120019
0.140372
0.139244
0.000244183
0.121198
0.120952
0.117368
0.120626
0.119389
0.118689
0.0562337
0.0511427
0.0542494
0.0533654
0.102589
0.105408
0.13317
0.123833
0.125194
0.124547
0.124476
0.11116
0.111483
0.0977331
0.100974
0.109797
0.10471
0.109829
0.11214
0.110683
0.111345
0.00136019
0.111794
0.111758
0.109288
0.114016
0.130899
0.130979
0.131201
0.0939134
0.087912
0.113171
0.113142
0.134212
0.118618
0.119531
0.136983
0.135134
0.0972228
0.0996994
0.098816
0.0977585
0.132579
0.138122
0.0808268
0.0461039
0.0454999
0.0545853
0.112075
0.028568
0.051745
0.0526933
0.0707021
0.124717
0.120582
0.138576
0.0452078
0.0236242
0.0247113
0.0207428
0.138605
0.138401
0.138423
0.138239
0.0411185
0.147762
0.144577
0.121814
0.117384
0.126558
0.124387
0.161932
0.161642
0.0412568
0.0361827
0.000348259
0.162189
0.00123423
0.0424955
0.00109393
0.0274054
0.0334173
0.130364
0.125211
0.100937
0.0696571
0.0724102
0.000315118
0.139181
0.0234912
0.0225247
0.0287682
0.122466
0.0207571
0.148877
0.144364
0.0334311
0.137504
0.000807121
0.072204
0.0676731
0.0113436
0.0407869
0.0507427
0.120228
0.126723
0.0792695
0.137027
0.137185
0.112746
0.0723684
0.068681
0.112102
0.159777
0.13556
0.136165
0.0938664
0.0911299
0.129105
0.0283734
0.0051742
0.000475188
0.119803
0.118069
0.00247694
0.0202155
0.0915813
0.000426609
0.00118641
0.0159669
0.120784
0.114075
0.117445
0.116915
0.00957219
0.0721569
0.0288
0.000387583
0.0812759
0.113555
0.117466
0.0826099
0.028738
0.0125871
0.0114497
0.130198
0.11176
0.131519
0.129015
0.130377
0.167313
0.0449609
0.165349
0.017
0.0221129
0.00311113
0.112218
0.0189345
0.0575595
0.0378751
0.0803691
0.0759028
0.0750747
0.0427416
0.0689707
0.0675616
0.083981
0.0737144
0.0715935
0.0820007
0.0402516
0.0410816
0.00514478
0.010926
0.0677045
0.0765512
0.069792
0.0160133
0.0201139
0.0528556
0.0583371
0.0809956
0.0792733
0.0819121
0.00770143
0.0276169
0.0583773
0.0012189
0.000723443
0.00140389
0.0437981
0.000725379
0.0014371
0.000344612
0.000798254
0.0322124
0.00164996
0.0955887
0.0690068
0.11903
0.0773548
0.0186479
0.0235999
0.100228
0.0369425
0.134201
0.0595884
0.11024
0.0473366
0.12581
0.00139046
0.0271053
0.132612
0.0173414
0.108135
0.123215
0.132803
0.131939
0.0890949
0.0504552
0.138373
0.122703
0.123773
0.0512146
0.132571
0.132321
0.131723
0.0188742
0.0174699
0.0128219
0.023408
0.0263799
0.0235181
0.0439291
0.0182056
0.129455
0.0635437
0.0198211
0.026069
0.0192789
0.0253381
0.075031
0.0780842
0.0860256
0.109648
0.0383576
0.000482081
0.137524
0.137397
0.0849497
0.0824544
0.0863127
0.0864989
0.0595055
0.123732
0.0756966
0.0247704
0.00275885
0.0264049
0.12656
0.121573
0.156031
0.156716
0.00984005
0.0109316
0.13397
0.116895
0.0825772
0.084025
0.0848274
0.0275631
0.112591
0.137959
0.0479786
0.0512947
0.0486303
0.136566
0.136925
0.0747893
0.066181
0.0291265
0.145653
0.146072
0.0664554
0.0603999
0.0263745
0.0296172
0.1348
0.136031
0.115288
0.150204
0.143558
0.138446
0.138308
0.049492
0.120444
0.0304753
0.0158414
0.146958
0.0311586
0.0209591
0.0218545
0.0666476
0.157166
0.0312401
0.0351534
0.0753125
0.0192122
0.0204114
0.128158
0.0268467
0.0607546
0.0259956
0.0994151
0.136511
0.136649
0.00735559
0.114368
0.00133058
0.0817129
0.124568
0.125588
0.104618
0.0881972
0.0866552
0.038699
0.0553281
0.0523002
0.104509
0.0846418
0.22779
0.184717
0.00104626
0.0491433
0.0553707
0.0546053
0.0518755
0.0290434
0.0131575
0.118757
0.0593994
0.108114
0.10935
0.103287
0.0852266
0.0373262
0.132213
0.121558
0.124679
0.138006
0.138103
0.0810795
0.0738906
0.0801408
0.0803305
0.0832978
0.0986341
0.0921679
0.106587
0.11345
0.105532
0.082135
0.111934
0.0772633
0.07256
0.0753346
0.0755015
0.100275
0.0919576
0.125865
0.125158
0.103585
0.138451
0.110571
0.108415
0.130287
0.145473
0.0368696
0.0874984
0.0692164
0.119007
0.117497
0.127927
0.0285181
0.032557
0.104499
0.11178
0.0397534
0.0679752
0.0627485
0.11642
0.116091
0.117903
0.113785
0.0677564
0.073731
0.0771248
0.0540417
0.0666213
0.136524
0.136911
0.136437
0.136862
0.063996
0.0628434
0.126166
0.0620138
0.0609038
0.0828594
0.0786426
0.075935
0.0869211
0.0879517
0.087607
0.137603
0.135925
0.135363
0.0964891
0.126051
0.104875
0.13593
0.0803706
0.0755969
0.05384
0.10159
0.275524
0.21344
0.239401
0.127344
0.12612
0.132597
0.0826135
0.0798414
0.0768286
0.00495926
0.214146
0.0400355
0.120299
0.12347
0.122682
0.121271
0.00918016
0.135673
0.136249
0.0472102
0.0866936
0.116124
0.13865
0.138676
0.152043
0.156888
0.000421614
0.0905742
0.128489
0.140898
0.139552
0.138729
0.00116756
0.126128
0.129235
0.122456
0.137021
0.136644
0.112111
0.0831773
0.0867723
0.0403458
0.0823473
0.111395
0.111789
0.110456
0.102464
0.00109201
0.146756
0.148256
0.0554774
0.00730059
0.10527
0.110097
0.121637
0.117533
0.0952104
0.0934037
0.0745621
0.133322
0.098424
0.0962857
0.0998726
0.0992116
0.196718
0.186508
0.10548
0.103758
0.101315
0.0366326
0.0466278
0.0624985
0.0666055
0.0690088
0.107719
0.0842598
0.114361
0.112834
0.0883485
0.115841
0.118488
0.00532767
0.0784152
0.118245
0.119274
0.120806
0.0784514
0.0782351
0.127521
0.138474
0.0535232
0.125947
0.132378
0.129817
0.122109
0.121646
0.0554121
0.134934
0.0808523
0.0160917
0.121236
0.122513
0.123001
0.127925
0.127475
0.0947947
0.100549
0.0911626
0.0877902
0.0562093
0.0606981
0.071576
0.0676034
0.0498243
0.0397551
0.0459067
0.0920567
0.0912399
0.0625162
0.0103222
0.105906
0.0957308
0.0951744
0.0972696
0.0488044
0.0607276
0.124487
0.12332
0.111416
0.114989
0.114042
0.0516724
0.12436
0.0164263
0.00188891
0.138877
0.119278
0.0703813
0.0657277
0.0702857
0.0644339
0.0517039
0.00148492
0.140627
0.139401
0.157832
0.0570436
0.0704574
0.131708
0.090293
0.0876092
0.0354128
0.124367
0.101303
0.0157976
0.155704
0.16106
0.0984859
0.0989697
0.158299
0.00224522
0.0190806
0.103182
0.0399811
0.063714
0.0624825
0.0478722
0.0494812
0.0970475
0.0981645
0.105857
0.0761556
0.0778579
0.151588
0.152747
0.138637
0.13856
0.0923283
0.0909269
0.0255824
0.0795801
0.0731995
0.0795631
0.0816096
0.0733663
0.0704654
0.0362053
0.0904239
0.0825611
0.153882
0.157499
0.12049
0.118753
0.09557
0.13829
0.138163
0.118293
0.116994
0.113694
0.112335
0.0945218
0.089909
0.104365
0.0599303
0.0646148
0.107826
0.111428
0.112027
0.110499
0.118048
0.117052
0.107118
0.105231
0.106337
0.129946
0.130362
0.130581
0.0686333
0.0641353
0.126177
0.134462
0.13507
0.059406
0.0327002
0.12918
0.126947
0.041225
0.096904
0.101058
0.0997815
0.128431
0.136204
0.144689
0.00605746
0.0936423
0.0945847
0.108066
0.11692
0.0620865
0.139157
0.140788
0.152592
0.0298251
0.0336407
0.0918652
0.0930301
0.0894876
0.0883551
0.0976607
0.0977842
0.0583399
0.0542961
0.154055
0.158709
0.139066
0.139001
0.139151
0.115662
0.109707
0.152817
0.0673879
0.0679796
0.0737832
0.0718438
0.0405791
0.104122
0.102604
0.105842
0.107281
0.0841238
0.13277
0.0830869
0.0545528
0.138161
0.137951
0.101966
0.129508
0.128716
0.128852
0.129129
0.0428147
0.0474715
0.132675
0.100881
0.103512
0.114389
0.154506
0.166099
0.117751
0.137747
0.137425
0.0744054
0.0867421
0.138365
0.12712
0.127902
0.127577
0.0829641
0.0852983
0.0601615
0.063489
0.102371
0.0994759
0.133938
0.0125222
0.114812
0.114876
0.112145
0.115365
0.0372858
0.120754
0.125912
0.123682
0.0806019
0.0781003
0.0783272
0.121216
0.116021
0.111638
0.133218
0.133739
0.133494
0.133133
0.134426
0.133926
0.121539
0.132861
0.116095
0.117971
0.0456775
0.0416945
0.0467264
0.11672
0.103032
0.109715
0.114432
0.126874
0.138794
0.130283
0.128096
0.075717
0.0804146
0.130399
0.131698
0.105295
0.104613
0.106993
0.121316
0.123838
0.117248
0.160471
0.136183
0.136948
0.123486
0.124355
0.125431
0.11276
0.110245
0.136628
0.136967
0.137133
0.129529
0.127924
0.127477
0.128735
0.129796
0.134652
0.134933
0.0440517
0.133264
0.132169
0.109265
0.109632
0.0592596
0.0633051
0.106423
0.108755
0.108338
0.134081
0.201975
0.256216
0.0857492
0.0110035
0.0914237
0.00121185
0.110762
0.110152
0.106384
0.0447262
0.132802
0.137804
0.137905
0.122357
0.123406
0.0966636
0.0955458
0.138345
0.135559
0.13546
0.0400332
0.136018
0.137007
0.137402
0.130459
0.130103
0.131458
0.106568
0.104523
0.126508
0.122668
0.131073
0.131217
0.102677
0.103103
0.0872081
0.0883129
0.0515496
0.0958798
0.100567
0.180843
0.153233
0.0987321
0.0995239
0.117703
0.111306
0.134852
0.134875
0.153833
0.140781
0.140866
0.0931299
0.0918197
0.0931258
0.11714
0.116886
0.0517329
0.133933
0.139557
0.126992
0.149217
0.147877
0.104584
0.101567
0.12413
0.136265
0.126565
0.10204
0.10572
0.104203
0.106017
0.155529
0.151088
0.0739401
0.0722924
0.133915
0.133331
0.0929553
0.0952497
0.098179
0.107575
0.111411
0.106901
0.0832707
0.142393
0.13805
0.139697
0.1027
0.103267
0.101247
0.0918722
0.0963766
0.15075
0.0845186
0.082204
0.121658
0.122041
0.0979341
0.100929
0.102184
0.079471
0.0776345
0.0754126
0.122221
0.120726
0.0442521
0.0435531
0.0938333
0.0969491
0.0989388
0.13447
0.138042
0.0678532
0.0846078
0.0875555
0.0759765
0.0702376
0.0782309
0.000567269
0.137106
0.136227
0.135222
0.138266
0.138518
0.134371
0.0473985
0.0440796
0.0332008
0.0387483
0.0676039
0.0748374
0.0712637
0.0681996
0.123792
0.122581
0.110203
0.105432
0.102199
0.293943
0.244772
0.0647461
0.139077
0.143824
0.103403
0.138173
0.0391761
0.0417289
0.226363
0.205819
0.180287
0.137888
0.138073
0.138345
0.13826
0.114244
0.069779
0.133209
0.132655
0.132608
0.131456
0.132784
0.119822
0.120663
0.126481
0.0147849
0.0185912
0.0749269
0.0787499
0.0548064
0.0546232
0.0476099
0.0446311
0.0480351
0.0448916
0.0559937
0.0583361
0.122093
0.121114
0.156369
0.15503
0.152609
0.0226451
0.0297774
0.0169796
0.13916
0.139303
0.139426
0.137553
0.0283733
0.031792
0.119081
0.133901
0.121455
0.116869
0.11664
0.138688
0.13871
0.138965
0.134476
0.142873
0.144852
0.0217851
0.133471
0.125849
0.0212161
0.0256033
0.120815
0.0192967
0.0863623
0.134141
0.00611578
0.135055
0.133468
0.129889
0.115722
0.114606
0.128572
0.0138366
0.0262231
0.13245
0.136227
0.0562932
0.0991923
0.136176
0.131376
0.1164
0.119716
0.121997
0.136878
0.135462
0.0395709
0.131703
0.137544
0.0657547
0.0855334
0.127518
0.132431
0.119715
0.134325
0.0824807
0.0830594
0.129948
0.120028
0.134882
0.0954357
0.0980481
0.0331701
0.134115
0.128268
0.126978
0.127489
0.0351949
0.0891302
0.122484
0.122654
0.0355152
0.0430547
0.131267
0.134575
0.132252
0.110978
0.11904
0.11776
0.113511
0.135506
0.128372
0.133416
0.128791
0.0686822
0.10702
0.131181
0.11897
0.123483
0.0788098