/*--------------------------------*- C++ -*----------------------------------*\
  =========                 |
  \\      /  F ield         | OpenFOAM: The Open Source CFD Toolbox
   \\    /   O peration     | Website:  https://openfoam.org
    \\  /    A nd           | Version:  6
     \\/     M anipulation  |
\*---------------------------------------------------------------------------*/
FoamFile
{
    version     2.0;
    format      ascii;
    class       volScalarField;
    location    "100";
    object      p;
}
// * * * * * * * * * * * * * * * * * * * * * * * * * * * * * * * * * * * * * //

dimensions      [0 2 -2 0 0 0 0];

internalField   nonuniform List<scalar> 
29874
(
2.91337
0.0998297
0.684788
-2.40591
0.178987
-4.70975
-1.119
1.21135
3.06802
0.934374
-2.47623
-0.0988565
-2.11751
-0.29959
-2.22838
-4.43457
-2.99213
-3.36319
0.884844
0.4903
3.72278
-1.30894
1.52945
1.42099
4.03569
-0.83047
-2.029
0.315835
0.246129
-2.42269
-2.22276
-2.71711
-0.572845
0.700996
2.76869
1.34179
2.94924
-1.61603
1.0206
-1.47398
1.38014
1.53417
1.75229
3.48947
-2.15153
1.32485
0.848824
-0.983108
-3.12277
4.1231
-0.189151
-2.37267
-4.11182
2.82212
-0.319898
-0.807059
-0.108845
1.39129
2.33037
-1.6627
-0.389549
2.47777
1.82599
6.44503
0.597063
0.977084
-0.0587032
0.746547
0.309144
0.303534
-1.66854
-1.1784
7.93982
0.851482
1.38749
-2.71816
-0.901298
-2.40376
4.29875
2.2166
-2.43424
-0.59477
1.37231
-0.798807
12.7832
10.8401
1.01566
0.806787
-1.68612
-0.909897
16.429
1.48959
1.54381
-0.725
-0.0366773
2.91061
0.209761
12.6365
17.5178
-0.361684
0.255947
0.958428
1.31829
4.4722
6.25359
17.1054
15.7209
0.0151284
0.50723
0.134283
15.1773
-1.4721
-1.58345
1.44754
1.37813
1.35995
1.46408
1.21084
17.8268
1.94135
1.60452
-2.63462
-0.20897
-0.289834
-0.198938
3.26757
-1.16744
1.50506
1.84056
3.15706
1.14639
2.36528
2.10254
1.45464
1.03461
1.82436
1.33044
-0.211224
-0.854275
3.38924
0.793049
1.36262
-0.793167
5.82494
1.17921
3.12226
-0.993019
2.65702
1.03021
2.07401
-1.90011
-0.617068
-3.11166
-0.326894
-0.629117
1.49021
3.42727
-1.94812
-1.59484
-1.70083
-1.33408
4.07761
6.98641
0.613977
0.390521
0.738271
0.27568
2.94659
3.47896
0.691232
0.451061
0.334234
0.503796
13.782
14.6843
0.536206
0.264255
18.7764
3.5266
3.53612
17.8129
18.1288
-0.747711
3.22872
3.69972
-3.364
0.90371
0.957439
0.362936
1.30267
1.30224
-3.7512
2.84165
2.91315
3.0695
2.00311
1.67288
0.216462
17.4736
17.6824
-0.818852
-4.24667
3.43521
2.90029
2.31806
2.7679
2.28681
-5.20643
1.66843
1.71543
2.22244
0.680076
4.38408
3.21745
-0.665438
1.01753
0.371647
0.268522
0.282522
0.499405
0.00603698
-3.54339
-0.509126
2.0537
1.20545
1.02081
0.168999
0.345686
0.117676
1.21609
1.22198
1.17176
-0.104686
-0.666115
2.89182
2.96833
3.65548
-0.662111
0.260371
-0.730685
-1.96717
18.0622
18.8749
6.1561
3.52598
21.4781
21.7601
-7.13865
3.35426
-4.67137
14.4975
3.16817
-4.50262
17.294
-0.065708
18.2163
17.4948
14.9583
-4.93043
15.1108
-8.022
16.8209
17.3218
-6.57349
-6.48782
-8.76903
-8.3522
4.74
4.90676
27.2189
20.5044
20.955
-3.05439
-4.06057
0.192046
8.67196
-10.3439
12.2217
6.51133
1.62239
0.435572
1.31486
1.80051
3.58852
3.28657
4.38814
2.3547
1.94464
18.3237
18.0868
9.59605
5.26138
5.41879
-6.03042
-6.66625
16.2945
15.933
-9.02655
-4.02162
-4.2942
-3.25883
19.1844
4.73345
19.2087
5.37525
4.41237
19.9548
1.55138
-9.73138
17.4729
-9.86253
-10.1894
-9.71566
-10.0641
-10.039
16.1692
16.3713
-1.08521
5.25818
5.38283
-7.20142
-10.3559
20.3319
18.171
5.90887
6.01846
6.28704
0.0541733
16.3691
16.0606
3.60772
3.00636
14.0496
13.4032
-9.88408
-8.8182
4.22618
3.59458
3.63212
3.31342
20.8912
-10.0588
18.6647
18.4401
18.5771
19.3407
3.36562
3.84262
-10.3706
4.77892
3.07889
-2.5682
-5.25721
-5.63412
-4.88258
0.0541697
17.8603
16.969
6.82584
25.3826
-5.11053
22.6779
-5.43378
19.4689
20.1401
5.05762
4.85996
4.98615
5.74272
16.8274
17.3876
16.9176
16.8617
1.25915
0.35037
16.5357
15.6693
15.7809
15.6374
15.2212
21.0315
21.4767
2.39981
2.45592
4.83705
4.39633
-1.56136
3.28206
3.22158
2.73018
-6.69826
-6.75109
19.418
-5.5335
-6.12844
-9.66217
-9.59696
-10.7628
-11.4654
2.94507
-8.33009
-8.02842
-7.49148
3.57178
3.45189
3.21386
17.8377
17.2416
17.3373
17.5511
13.7726
14.8969
14.4193
13.9596
2.17428
20.6493
20.1416
19.6094
20.4688
17.3031
16.8544
17.8538
14.4702
15.3169
13.941
14.592
15.2693
14.2409
0.709417
1.47647
-7.57029
-7.89345
-8.26506
-9.27001
13.7921
-7.06884
-7.5802
12.7891
13.766
16.369
15.709
15.7737
15.6217
18.9883
19.3114
1.87587
3.73556
3.70319
4.02295
3.08401
18.9676
18.3837
19.7424
13.8441
13.0105
13.6475
-8.36181
-7.99173
-8.74751
-8.8679
-6.34943
-6.08737
-7.28637
-7.62097
17.7407
17.133
17.3877
9.016
0.733584
0.605742
0.659351
0.58333
8.64087
10.2331
6.09564
6.00876
5.66136
19.1168
19.8478
18.5229
-2.61041
15.7206
15.521
15.7909
15.5843
1.57365
20.3911
21.1441
20.4242
19.8002
-1.17455
23.7009
-3.76299
-1.52657
18.6066
0.126091
-1.60292
1.02118
1.07869
1.09077
-2.35674
-1.55299
2.72985
2.44004
-0.370461
5.19572
5.71416
3.96736
4.29708
-1.7876
1.74445
1.85617
9.36138
1.42684
1.51601
15.1484
1.02318
-3.06552
13.7282
0.302029
1.35432
-0.432087
9.13877
-1.60959
-1.19014
-1.25071
1.81272
1.03438
-1.80321
-1.89913
-1.90306
-1.80904
2.7944
2.76248
0.0735682
0.154219
0.193002
4.11084
2.07684
2.03964
-0.447856
-0.537213
15.3871
15.2373
-1.20789
-1.17566
-1.01571
-0.639444
0.0359975
3.21685
-3.06205
1.1662
1.24691
0.425848
-5.23712
-4.38822
-4.3408
8.28929
1.07218
-3.81964
-2.09252
-0.470312
-0.462373
-0.491748
0.0125896
19.0926
-2.51044
-2.32204
12.3851
11.6684
20.7475
-2.87533
-0.382055
-5.89464
-3.4835
-0.44848
-0.218566
1.53307
12.2676
-3.39289
-3.94051
6.69551
7.64764
0.0895977
4.15258
4.10441
-0.644602
1.0677
0.639307
0.497813
0.681514
-3.74534
-4.24618
15.0843
15.2475
3.76087
3.32402
3.61714
3.9348
15.0956
0.841289
-3.37484
2.16405
2.3326
2.50748
1.02095
1.07293
1.04546
1.06773
0.977818
18.2693
18.4088
17.7724
2.09797
2.16987
2.03632
2.31954
-4.30242
-3.8451
-3.7534
-0.590835
21.5369
3.67472
3.5582
3.20738
3.59721
17.9308
19.2711
8.21926
9.12701
2.94724
-0.276737
2.52397
2.09218
-6.41973
-6.00603
11.0347
10.3429
9.65064
14.2843
13.8424
2.04678
2.14443
2.2986
-2.13903
1.7917
1.48493
3.988
4.57603
4.32507
-0.107724
-0.23956
5.3629
5.51784
6.118
1.25889
-2.73938
-2.61368
-2.52277
23.3137
15.3915
-0.101623
-0.0464774
0.230291
17.2246
17.8235
-0.274425
-0.690982
0.121486
-15.2728
-14.6329
6.31181
-12.1054
3.25351
15.435
4.41239
15.0912
17.8273
10.8105
9.94769
9.25051
-8.71573
3.79989
3.32659
3.29373
3.69496
6.08648
-3.66039
-0.595712
19.5851
14.9066
5.69623
5.3991
-10.631
-10.7887
2.45324
-5.86787
29.1611
16.2035
22.7387
22.8531
6.54654
-0.258893
0.241342
11.2388
20.2045
-0.341126
22.8892
1.54879
19.8051
6.15851
13.4367
13.2516
7.72729
-4.60419
-11.6479
20.4797
20.2287
2.70194
-9.30752
11.114
11.4633
1.02858
1.54592
-3.82386
1.03584
1.27419
13.0209
1.33205
0.944984
-9.50549
-8.59952
-0.223053
0.117489
-9.99698
3.72791
3.84448
-9.62128
4.47435
-11.8927
-33.325
11.9614
3.74809
-3.00581
-31.1871
-17.0531
5.19113
-5.73675
-12.5982
10.0491
10.1238
10.4267
1.15974
17.3042
17.3505
4.33859
4.88387
12.0465
17.3821
16.43
-2.09017
5.64296
5.62045
-11.6529
-12.3943
-7.45473
-6.38448
-1.19969
1.96864
12.6036
12.7678
7.73506
1.3518
-11.24
11.2051
10.6522
14.6089
13.7787
-5.02914
3.69529
-3.37194
-2.57714
4.52294
17.4505
17.4797
5.18291
-2.08353
-8.43214
7.66046
-11.379
-12.077
-12.258
13.8312
14.4146
-5.13624
-24.1351
-10.0257
16.9454
-16.4678
3.61462
4.03341
-2.07972
-3.15755
11.5643
17.0014
18.4668
3.69257
-20.3722
-0.867114
0.65052
3.52553
5.81396
6.07519
-6.54061
-6.38495
6.69386
14.1243
4.44032
8.88099
1.00414
6.37451
1.93609
25.6434
17.3673
-2.86541
-4.49835
-0.7483
-0.152002
13.596
12.7166
-8.67405
-9.0768
3.03722
-7.88929
-7.92682
-9.91947
-10.0454
5.61027
8.30802
8.4191
4.20252
-2.43447
-1.55715
8.53538
7.38084
6.89429
6.64669
0.699618
0.223106
-7.06124
-6.56024
6.79502
-0.078189
0.0459101
15.3409
14.9266
15.4793
-10.2675
6.98846
5.42387
7.42806
7.69009
13.1993
13.0494
-7.67295
-1.62985
3.34281
1.96696
-7.78126
-8.57657
6.23932
-2.13519
-11.9114
4.12388
-3.07581
-3.34834
-11.7005
-12.0142
-15.6956
13.1798
14.5391
16.3815
4.14055
-12.4449
4.53172
3.86546
9.94949
11.053
-4.08916
-4.27727
-3.96956
4.52948
3.60675
4.33284
4.58684
4.17499
-0.879875
11.2242
-19.7879
6.79127
6.01564
6.44011
-12.2042
-12.1586
3.27456
14.0166
-5.05403
-4.27101
-5.52979
5.57974
15.5344
3.4014
4.28782
-21.3418
12.785
13.0846
3.26545
3.41591
3.15286
3.19416
-0.17807
-19.0133
1.44478
2.21582
-2.18544
-10.6458
-10.9084
-7.75796
-15.3094
2.22197
-11.7359
-9.54229
20.2565
20.1742
28.6281
-11.1813
-10.8986
-10.4046
14.1622
13.082
12.5804
4.96865
-11.3845
-6.70835
-7.34883
4.92762
-0.507359
13.2812
15.7779
-7.16626
4.34769
1.71687
9.92013
10.5589
3.17891
3.35694
3.63809
-7.08684
20.2823
1.03929
0.903696
24.9724
1.65961
-9.36159
9.19645
10.2839
-10.1422
12.0963
10.6932
11.0591
15.1508
-11.8015
-2.7691
12.4531
-11.5502
-11.5415
5.81971
5.66114
15.1838
15.4658
16.1331
12.7471
4.77857
3.7787
2.33563
2.46943
-1.62295
-2.1945
-6.44776
-5.16501
-5.86179
13.8948
14.0092
15.0129
2.19081
2.52784
-10.9483
-10.7315
-10.7423
-10.8167
-11.7436
-11.6099
-1.4295
-8.94971
-8.93463
2.45498
1.94814
18.5292
19.2233
-7.87975
17.1711
18.3965
17.2827
-7.14595
-7.17546
-10.2002
-8.94895
2.94125
4.30227
5.52968
5.704
5.13969
-3.30364
3.30058
3.03402
6.61751
-2.16174
-9.39267
-9.59292
-9.62885
8.3651
-5.74896
-6.01607
13.3932
18.6143
5.62054
6.01157
5.73915
16.7675
12.5771
12.8719
15.922
16.0792
0.882289
1.41555
7.49031
0.222487
0.606771
-0.404315
-0.357718
15.9712
16.0527
-8.82908
-8.77067
-8.9355
-8.70648
-1.26089
-0.199354
-0.697437
3.43905
-0.98688
5.43978
12.5899
-5.17005
22.9905
-8.1847
18.8568
19.6386
3.92499
4.07824
3.84368
3.55636
3.44575
3.83006
16.4895
7.76883
7.78903
7.45493
5.66672
5.59964
6.21299
3.76152
-2.73478
-2.31364
6.67868
26.9758
4.90096
-10.8311
3.26252
13.6911
-1.78703
5.13627
-12.0288
0.015938
0.149971
-5.89913
12.6312
12.5422
12.7268
6.34485
2.49978
2.36426
6.99617
7.13073
11.1014
10.5952
11.2704
15.6725
6.52669
6.15647
-6.88492
-6.20698
3.73908
-6.97388
-7.41689
-6.81104
-0.826407
-1.39622
-0.541522
21.6532
-10.0832
29.3049
4.93644
4.3568
2.85806
5.42757
27.9289
15.4491
15.3859
4.29125
14.5358
14.3515
14.1587
14.5262
2.71095
3.08634
13.1096
13.1891
-11.8291
-11.8957
2.27112
-9.86463
-2.89518
-2.01463
29.5643
5.69844
5.37874
5.75383
2.94463
-8.90923
-8.84195
-8.49737
-12.3347
-12.7354
-12.7071
3.10326
2.85915
5.60594
4.29094
3.86817
4.00222
4.83134
4.54185
4.91462
19.0123
5.4048
4.79275
4.19392
4.2765
4.79503
29.6772
18.8155
1.09574
0.732066
4.33971
4.73423
4.15029
4.33157
4.51248
4.01492
18.8149
19.7036
5.12693
26.3473
5.55363
5.21218
-7.62139
-8.57547
-7.99892
23.1485
7.92076
8.63293
29.7911
23.1903
23.0625
7.61739
7.53484
7.61068
-0.560542
-4.60105
-3.99001
7.56577
4.5936
15.0765
15.3797
15.3188
2.97396
2.49062
18.5638
23.0238
9.24358
-8.87924
-8.48962
-8.33854
16.3893
16.9539
3.355
3.43214
2.51069
5.70065
5.35477
5.51061
13.2415
29.6532
11.6762
21.3261
7.82763
8.14456
-8.26976
-8.73344
18.2446
17.4283
8.99165
2.92289
2.62318
2.08803
1.49535
2.36158
-11.2136
-11.202
-0.206806
23.0857
29.8107
-8.34887
18.6708
17.9858
-12.6436
-12.4632
13.9288
-6.93774
-7.59631
16.1357
1.90211
1.51216
13.0607
13.2379
-7.91944
-9.32156
15.4523
6.36378
6.51221
0.89744
0.653151
-11.4352
-11.2766
29.5696
29.4959
-10.9007
5.20721
5.01196
29.2147
5.17048
5.38666
12.5113
-7.35666
-6.59788
-6.96012
5.56355
6.99985
6.9882
4.31029
4.51736
4.21959
-7.59209
23.1402
6.15786
6.52356
6.4556
6.79191
6.27682
6.08039
2.2708
6.54638
1.71743
1.67635
7.48051
4.81918
4.74393
18.1851
18.3142
-8.98276
-8.76553
-10.0893
-10.106
13.9043
-9.00831
4.15767
4.34035
0.087413
15.4348
15.3274
15.6668
15.4066
16.1874
15.9372
4.74484
12.565
12.3289
12.0327
-2.10096
-1.63444
-0.922312
-0.396195
17.5447
16.6626
18.7682
19.5128
-9.9045
-9.96194
-10.6813
22.6495
22.5481
16.8614
16.3601
13.3588
13.1451
13.8341
14.0675
-14.0797
-5.63113
1.24487
1.26991
-3.7483
-4.00117
8.55687
8.15665
-8.22714
-8.87189
-7.52401
-7.35957
6.05898
5.37319
6.79065
7.14123
4.8554
4.8667
13.8321
13.8808
13.6384
13.2528
3.48177
4.30117
4.03523
3.3211
-9.14832
23.9698
5.73664
5.80707
5.56428
6.20451
10.8481
-9.74491
-8.8674
-8.98399
5.41812
-10.8562
-10.9467
-10.4349
13.4462
12.9283
13.2054
-3.46716
2.96028
-3.95365
-2.32413
-9.72598
-9.09304
-9.6777
14.5777
14.5797
14.8075
-10.3614
-9.91882
-9.69867
-10.2779
-9.47831
-10.6977
-10.5043
-11.3416
13.4894
13.9387
13.3366
-0.792355
-0.295909
1.21651
0.674946
5.13078
5.13074
5.26346
2.81516
2.69914
2.42469
5.46247
3.47962
4.23253
2.18299
2.27225
-9.63351
-9.86987
-10.6572
-10.5296
-8.16216
-6.20599
-5.44351
14.6013
14.8114
14.2704
-11.0935
-11.3216
-4.63049
13.8712
-10.4022
-10.3411
-5.29611
-5.68638
16.3569
15.7586
13.8326
13.7051
15.8231
15.5075
2.37628
2.22664
-6.42569
-9.05855
-8.44946
-8.23158
-7.14797
-7.26789
-7.75549
-1.55978
-2.01825
-11.3981
-11.2627
-0.964972
4.26289
3.94047
4.17733
4.23813
-23.0022
-22.6761
-7.91619
-7.70755
-7.607
-7.16342
-11.8149
6.97863
3.86933
-22.5958
13.7639
13.9257
6.25782
6.06651
5.69434
15.9683
15.8998
15.9351
-8.00112
-7.66487
7.16166
7.32229
7.32812
3.76261
3.65257
3.66149
3.30523
3.72119
3.9376
3.82183
-12.103
-12.0806
14.7367
14.612
14.7901
0.98846
1.01955
4.42515
4.7268
4.99024
4.34652
-9.53572
-10.536
-9.27187
-8.76792
-5.27713
13.1141
12.7664
1.50806
0.834706
0.244032
0.816289
17.3728
16.9525
16.2113
16.3754
5.77028
5.90787
5.80349
-0.889452
0.127103
0.753335
1.18922
1.42334
1.33789
0.697767
17.0967
18.6129
17.5543
17.2788
17.9939
-8.77215
-9.69336
-9.20547
12.8739
13.098
12.506
16.2263
16.8848
-4.71481
-5.65228
-5.13868
-5.10879
-11.7714
-11.4008
8.15618
8.30807
8.15799
7.66437
8.36686
8.86613
8.72682
3.4472
3.41611
4.67931
4.50511
13.4329
14.0551
13.8439
1.71121
1.18063
2.61628
9.10265
8.57875
9.39919
12.6988
12.7731
13.1265
-4.988
-5.41485
-3.62485
-4.71528
3.65696
3.06634
3.52782
-9.45261
-8.74428
-8.75239
13.7566
13.698
19.5034
19.0842
19.1902
13.8636
13.515
14.2319
14.2413
14.9541
14.4281
13.8237
5.13758
4.89995
4.91241
4.7387
-9.52182
16.8546
13.4486
13.5579
12.9492
-9.02591
-9.24011
-7.73475
-8.20722
-1.68878
-1.4642
-2.41624
-2.75257
16.7151
16.2724
15.7084
12.5353
12.6077
11.9035
2.93117
4.14503
3.83426
3.94889
12.9575
7.25466
6.98903
4.77134
-3.61396
-6.84285
1.54608
-11.2611
-11.2493
-9.83515
-9.62529
-8.25173
-8.5118
7.99593
7.83706
7.97576
17.149
17.3066
16.7908
3.85542
3.45925
4.11315
4.20126
18.1998
18.7761
18.0611
17.7387
-10.6694
-10.9497
-10.2527
3.13186
3.48936
3.80303
6.35215
5.57536
2.64021
2.95878
-10.8082
-11.2201
-10.7135
-7.73596
-7.52693
-7.78244
10.2739
13.5053
13.0418
13.3745
13.6504
-7.44612
-7.42103
5.7466
5.39813
6.64463
2.06943
-8.92678
-8.30823
-8.70957
3.86386
4.80644
3.37976
-6.5582
-6.27027
-5.47973
-5.33425
-11.2776
-11.1632
-7.62279
-7.28468
-7.38258
3.14361
2.79832
1.95754
4.67846
4.42162
4.90996
-9.96782
-9.43618
-9.79504
-10.3532
-21.847
-21.0963
0.243962
-5.23408
20.1485
15.7296
8.00281
7.75955
7.7324
9.73358
-24.5215
0.821985
1.31264
0.840161
7.50657
7.37209
0.997713
19.5124
6.55314
6.2356
6.16558
6.46754
3.11345
2.65066
2.80883
-3.76204
-4.87228
-4.18753
3.70788
4.02632
6.53055
7.00345
6.41849
6.66144
0.631149
0.567007
0.730035
4.42262
4.69946
4.39761
4.16635
-9.30331
-8.24839
-11.9499
-11.3508
1.72068
9.95171
9.85349
10.195
9.69232
-10.9928
-11.1217
-8.83797
-9.67894
-10.0699
-10.2218
1.048
-7.95227
-8.12408
9.60457
3.28121
3.80011
3.5555
3.59601
16.0018
16.3543
16.5314
-11.2392
-11.1067
-9.03078
-9.74198
-10.0101
-1.58109
-1.13208
-0.155113
0.461767
10.0627
9.7028
-4.94226
-4.22319
-4.52126
4.19953
4.29351
4.06031
17.4927
17.0379
16.6017
17.3035
15.678
15.9912
10.5375
-0.496581
-1.10073
-1.93195
-1.80227
-1.99845
-2.33008
18.9444
19.0872
-2.0157
-0.949441
-0.2917
-0.282139
5.77557
5.2847
5.69741
5.73885
-2.07485
3.55168
2.74944
-9.76196
-9.60517
-9.88824
-10.0623
-10.9921
-11.3362
3.67811
3.79895
4.18234
4.15606
0.98589
0.3671
0.160876
0.24185
17.9531
18.1497
18.3334
-10.3003
-11.0741
-7.36417
-8.01329
-7.01258
-6.40072
-19.8881
-11.9261
2.7855
3.22648
-16.2901
4.30574
4.37396
-6.37082
7.63955
7.298
10.1133
9.89302
15.9631
15.876
5.34461
-9.04445
-8.67076
-8.42517
4.93477
-3.30911
-3.66525
-3.7643
-1.61347
-2.20476
-0.579657
-0.823084
3.7387
3.45331
18.956
-7.02273
-6.65796
-5.89473
-6.61564
18.3526
18.1976
19.617
19.9423
3.3749
6.00799
5.83194
5.79607
6.40227
16.7022
-9.18366
-9.30027
-8.1945
-7.72269
-8.88976
-9.19623
-10.5343
-10.7673
1.868
1.79794
13.671
13.2226
13.6125
-11.0544
-11.2035
-5.26738
-1.87044
-2.14418
-0.792068
-0.548034
1.64564
0.927492
25.9934
15.1352
-9.90039
-9.67733
-9.67825
-10.5266
17.7473
17.7629
18.0328
10.5239
4.82479
5.0322
4.74981
0.730816
0.737918
4.3685
-3.50972
-0.0583277
1.34846
0.948832
3.91841
4.11001
-1.80732
-1.1797
-2.41463
-5.70995
-11.0743
-10.6216
-11.5772
0.924027
2.11328
1.08465
4.45902
4.2392
4.67242
3.81065
4.25952
19.093
19.1009
19.0524
19.8855
14.3277
-1.21323
-0.554661
-1.47237
10.5344
11.2317
10.3762
18.1812
12.1388
8.4917
-9.85357
-10.0394
2.87944
3.06044
-12.4604
-13.0643
-12.5649
4.59799
4.98975
5.4002
4.98439
1.58612
0.665846
0.896103
1.78501
2.03969
5.95671
5.70472
13.4042
13.2904
3.85849
3.75788
3.83242
4.04946
-7.36764
-6.70556
-7.94066
-8.01544
-7.78455
-7.50366
-6.7934
-7.39548
-7.45595
-8.88203
-8.18061
-7.84026
-10.0368
-10.4544
-9.66996
21.8644
20.1268
20.7112
19.8933
19.5867
-11.0096
-10.4235
-10.6459
3.39513
2.81365
2.95728
4.12331
4.14894
-6.62691
-6.83566
-7.80148
-7.70095
2.7125
2.16902
3.86572
3.49307
1.92304
1.39107
1.69719
1.78933
4.13163
3.90673
3.97723
4.00739
-11.6961
-11.8371
-11.6486
-13.8094
17.2353
17.5033
-2.21947
-2.7753
-3.18857
-2.75952
-6.45247
2.11492
1.43223
1.90858
1.98936
6.42095
4.59388
5.26104
4.91714
4.44587
-9.71374
-8.66566
-8.71083
-9.9051
21.3955
21.7438
4.7133
4.80024
4.42084
3.16633
3.2844
3.20072
27.0656
-7.03836
-6.29402
-6.8382
4.41098
-8.65206
-9.06002
-9.4332
15.9343
16.1915
15.9078
-8.09789
-0.100264
0.49632
1.44117
1.80871
13.8123
-7.114
-6.44892
-5.89734
-6.30468
11.2723
11.4972
10.9304
15.3656
15.1314
-10.3962
-10.299
20.5538
2.36793
1.51927
2.6439
3.36731
-2.40842
-6.03646
-6.19225
10.7332
1.01391
1.01056
4.82972
5.10606
4.02365
4.13731
16.1277
16.2226
16.0486
16.5045
19.1505
17.1596
-6.03956
-0.478802
0.158659
-0.236492
-0.267676
14.7196
14.5426
13.6811
13.1294
-9.27985
-9.69265
-3.40873
-3.03262
-3.84726
-4.06887
16.7225
-9.68651
-9.64549
-10.5993
-11.2309
4.675
5.66605
5.64566
-12.0748
-12.183
13.1111
13.08
4.50196
15.3837
15.3439
1.23672
5.38831
5.59389
5.40307
5.22601
5.85141
-4.34219
0.763037
-14.5795
20.1027
19.8921
12.2859
-14.5737
15.6702
24.9722
24.5834
-18.7493
3.84577
-12.3502
0.506852
16.661
13.5196
11.2193
12.0864
-0.915439
0.539727
0.566371
0.613727
24.3498
-4.77765
-4.45561
5.08865
5.73824
-3.17043
-3.47828
-0.334188
-0.895635
11.7396
21.6111
18.4698
-0.615868
12.8728
13.7965
13.224
18.603
25.2989
6.48167
4.12285
-13.835
20.3972
16.5328
21.0983
0.908574
14.6189
14.1705
14.7375
2.76734
13.032
-3.27952
-3.54481
11.9032
-3.24205
13.5878
0.191891
-0.0908045
17.3606
10.501
20.9166
2.2621
0.562416
24.3563
1.58504
1.38115
-14.8944
16.6412
17.9892
5.96613
-1.04307
1.34774
1.51184
-17.2969
-17.7834
6.92264
-21.2087
21.328
28.4569
1.70518
1.42257
18.5413
15.1034
-18.2149
18.2476
13.0096
12.1769
8.95304
10.3972
9.72642
-4.89293
10.7183
11.3911
25.4453
25.9781
24.4711
6.97973
6.43392
20.0843
25.7845
16.9975
17.2678
1.91344
-3.17665
5.84354
6.77463
6.21384
-2.79826
11.4788
-1.22481
23.5896
23.0129
22.6004
5.41052
9.70165
19.1167
11.2965
20.3508
20.2685
20.2312
17.193
20.0172
19.6286
24.5258
25.1109
20.2113
19.6652
20.463
20.9011
25.4585
23.4632
20.0876
24.9804
24.5587
12.5894
12.1896
12.285
12.4824
24.7465
24.8114
24.9513
22.737
-25.834
19.8928
9.85007
26.1849
25.9889
12.9676
16.9848
17.339
19.0895
18.8964
27.1912
22.9815
8.08051
-19.0716
-12.0139
20.7493
-22.6174
-21.6869
-10.3482
16.3279
4.21453
18.3731
0.0718675
17.7338
7.80513
14.7572
20.7869
2.27821
24.2002
0.135102
-0.331077
2.70101
3.01679
17.663
26.1692
-1.72609
2.07603
2.34807
17.8178
-8.75321
-9.18433
3.44657
28.8817
22.6761
25.154
21.952
21.7067
22.1212
20.8695
29.0258
4.32113
19.8285
28.7351
28.5347
22.4777
22.3203
20.3022
20.6649
9.52525
9.65148
24.6102
23.2377
1.98469
2.03618
24.4475
24.336
22.9746
22.6443
21.0036
4.4502
-7.12213
9.91209
10.2879
22.3694
-6.20081
-6.71148
-1.06506
-0.475647
16.8209
16.4457
2.6462
-10.5254
22.5568
19.7224
19.2317
28.4831
4.49194
0.774299
11.7189
12.5182
17.1056
-1.85296
-1.71151
20.385
20.5801
28.1986
-4.27829
-4.43158
20.3254
20.6895
22.3369
22.3771
2.71005
2.34455
6.10511
-2.79139
-3.15606
0.937637
0.892348
26.0646
-1.25839
27.9309
22.3185
-4.26779
27.5144
22.1636
22.1801
-20.9764
-0.804964
26.4507
26.6744
23.6201
13.2142
13.5951
7.08733
21.1895
19.2864
20.2829
7.85719
2.70664
2.5775
20.1337
3.04333
13.6773
-18.9221
-0.434047
0.0564888
6.16105
21.8505
21.6998
25.21
-22.4444
21.6321
17.2768
23.9904
-2.53853
-2.38544
10.9322
17.954
19.045
19.0058
18.7047
-20.6741
17.6098
-3.33525
19.6499
17.1609
17.3495
15.9645
21.837
15.8801
-1.27445
6.19674
5.69908
0.618452
0.686715
-15.2428
20.6126
-15.3262
20.228
20.1792
6.05159
6.72788
6.11486
-7.91021
-8.55202
-15.2289
0.426135
20.3166
10.1331
9.5883
9.53772
17.7038
22.6793
0.252161
-0.346679
-0.000562899
-1.15013
1.41958
0.840709
2.71898
-2.4932
21.9872
-12.8241
-12.2158
2.6191
2.18504
3.41118
21.153
20.8821
6.88178
-11.2828
16.9804
20.1412
20.7005
15.6322
15.0886
15.3651
-12.1289
25.5991
20.5787
20.8577
21.1083
20.3647
2.25702
2.15388
2.54709
2.27221
25.7451
25.9624
-2.28997
20.5653
20.7288
21.4034
21.4821
20.9345
22.5739
21.6338
21.2221
1.54865
1.78598
1.96801
8.13109
3.80383
6.58381
3.63874
-11.0632
-11.2866
26.0402
7.64191
-4.26197
-3.11212
-3.64526
-10.9589
-10.1036
3.54036
20.7332
20.3181
20.3943
22.045
0.82362
21.4405
-11.2895
-11.1194
-11.2636
-10.9323
16.6764
3.36415
3.10657
22.1427
18.8612
-3.68488
1.16487
1.26234
-0.617143
-0.543469
27.6204
19.6271
-1.34513
-5.54784
-6.6234
-7.01755
19.1742
-1.40917
-1.7964
-1.82588
1.36735
1.36945
-8.24156
19.9829
19.7941
8.29842
19.5698
-5.96872
-5.70961
-6.08657
-0.0400668
15.8462
-0.974385
-0.800774
17.0118
19.1054
1.22778
0.996557
6.71945
7.81611
13.9132
13.7932
20.9081
-6.02555
18.6218
19.0791
18.4216
18.892
1.41186
-0.500822
-3.74465
-3.96463
-4.40057
27.9866
26.8403
-11.5422
-11.2626
-11.2589
-12.3519
-12.3292
-10.2414
-10.7316
13.2564
-3.58734
-3.45657
14.7799
12.7242
15.6475
15.7734
15.186
19.1479
19.0567
1.63837
-1.53312
26.8878
-7.54714
-6.91975
-7.42449
2.98581
2.37183
26.7175
1.47883
24.0693
15.9363
-1.59125
-1.7664
-1.01467
-9.17265
-8.89292
13.2083
12.6791
19.4632
19.134
19.5419
20.2231
19.7211
20.8216
22.137
22.2745
21.5057
18.9261
13.8303
18.2593
22.3123
9.37359
-8.69698
-8.90537
-8.74763
27.2241
18.6961
4.82471
4.65196
4.94876
4.20172
4.51452
21.2418
-8.22095
6.8129
21.5693
0.551165
-2.75614
19.8818
20.13
19.9413
11.4111
18.5958
25.2045
-4.92375
-5.65145
-0.651363
21.8442
21.3778
3.14961
-9.61177
-9.80166
20.9363
-1.82908
-3.31359
16.8996
-1.2257
-0.587956
5.59226
5.84968
-0.832291
9.57068
-19.2189
18.2846
21.2785
19.1017
18.5239
13.6528
13.2678
18.4139
18.2363
17.224
24.5517
24.2081
0.311174
-0.629567
1.34777
1.37794
7.38688
7.31299
26.2727
13.076
12.7721
24.5663
24.2702
9.85026
10.3685
-12.1084
-9.32443
-9.53547
-0.492088
-0.197259
0.379635
0.19852
11.0305
1.32437
1.34583
-11.2529
-11.3134
17.2133
17.5904
-10.5905
-10.37
0.629722
-11.9241
-11.3905
14.9332
15.0433
15.1318
14.5824
-3.73483
-4.06164
5.29177
5.40184
5.4622
3.9051
4.44585
4.66565
20.213
19.7778
2.66664
2.37384
2.21034
26.0559
25.9596
5.71387
6.60419
15.6141
13.1439
13.9992
13.973
2.3161
-5.09518
-4.26089
18.2726
15.9821
15.7062
-7.62485
1.80261
19.7257
-0.728204
-0.639761
-3.96438
15.159
15.5517
8.59581
8.62803
8.92425
9.113
5.26949
5.15158
-10.1798
-10.3267
-0.737714
-0.727247
1.12284
1.1035
1.12019
6.55348
-2.81158
-0.498267
16.4435
16.3892
14.4756
15.5042
21.4782
15.69
15.216
4.75496
4.64839
19.3601
-1.44593
-6.73536
21.2288
1.54586
1.62045
8.83306
3.07702
1.70771
2.58495
2.7948
20.7792
20.8642
-1.09888
-4.89121
-4.43223
17.3293
2.74892
2.15343
-1.09187
1.16995
1.23964
19.9354
-6.63643
0.952527
0.44599
1.71179
2.04482
13.6242
13.4704
16.1777
15.8163
14.7434
15.059
4.66158
20.863
14.6557
14.5855
14.6629
-4.56599
16.3698
-3.94726
-3.60545
-3.87628
8.59698
9.3092
9.05205
4.69931
-4.01018
-4.42362
3.9947
4.24812
4.20205
2.3895
2.06945
2.0672
-0.234482
-0.495813
15.0123
15.2838
21.2787
21.4599
21.133
0.552019
0.417533
0.950857
1.04864
-10.2202
0.0503572
4.58205
5.42554
-10.9237
-10.6311
-9.30177
-9.18542
4.37058
4.61326
4.44765
7.77942
7.12826
8.26084
-0.884371
-0.54252
-0.373015
2.79348
3.07479
2.77885
17.0211
18.2419
2.76345
2.6235
2.39293
-10.3294
-10.038
-10.8069
2.62046
2.48773
-8.90158
-8.94508
-12.1557
-7.9505
-7.5861
18.156
17.5328
-12.1563
-11.7086
18.1152
17.8264
17.9558
4.33855
-2.10856
0.511269
18.9004
13.3517
7.81585
14.9836
4.66136
4.41653
-6.89131
20.2893
3.38317
1.78183
1.68978
4.37344
4.22566
18.9291
18.7105
1.18046
5.56438
5.48776
-11.9962
4.23635
3.96776
3.75755
2.62567
2.31542
5.91894
5.39031
5.38983
4.19027
4.35143
2.01628
2.29412
17.3425
17.6117
7.3891
7.39214
-22.674
7.10265
6.81172
-3.23309
-4.16955
5.13526
4.80572
4.11511
4.1911
4.9962
4.94522
-1.98447
-2.14636
-2.24258
19.1968
19.1566
19.3094
16.1384
16.25
25.4453
-1.41404
-1.28672
7.42862
-3.77908
-4.25466
5.96955
5.98581
-3.52386
-2.85967
-2.32082
-10.8485
-11.1758
5.77612
5.49992
-0.540194
-0.409668
18.7288
17.4479
-9.04569
-9.08629
-11.5259
-11.9687
-12.0326
-5.12612
-4.97565
-5.79811
23.1713
-5.51823
-5.81641
-5.77204
17.9737
17.9702
18.3195
12.8363
13.0025
-0.688236
20.8444
20.2926
15.5543
15.4449
6.69007
6.56561
6.45878
9.50039
9.40647
10.0377
16.1639
16.3099
17.2684
16.9537
14.7113
14.3541
14.8796
-6.30664
-5.70117
-11.5717
-10.0578
-9.99082
22.4963
22.7279
22.7313
20.4774
3.86173
4.23841
4.69479
0.32051
0.366382
4.63127
19.6183
20.9577
20.5301
21.4032
16.9138
15.4841
16.192
17.0505
4.74017
4.85451
-9.24506
-8.99166
-9.83282
-2.87232
-2.58094
-19.4036
-1.34471
-1.55471
-11.6388
-0.947831
16.0435
15.8233
-2.96095
-2.56585
-2.50744
1.72157
1.64014
1.50372
1.53165
0.325227
20.4559
2.80805
3.21681
-0.217266
-0.152742
-0.248357
-5.65954
-5.19623
-5.42672
20.8973
20.7554
-10.9834
-10.6081
12.7736
12.7952
16.6617
16.3954
16.0631
16.1933
12.5536
12.3405
-1.71026
-2.10846
-0.396856
-0.319839
-0.652651
19.9371
19.7309
17.7271
1.21849
1.16331
1.18764
-1.86561
-11.9562
-11.9097
-3.03747
1.77996
1.30398
1.72291
1.38518
1.31748
1.24026
1.16479
4.87403
-0.214848
0.00613152
17.6948
5.82054
5.04238
17.7743
17.6754
-3.52545
15.6275
-0.0448915
-9.3237
-18.4084
-0.591561
-5.58048
9.04539
3.39397
-0.751237
3.55248
-11.9749
16.3987
7.97102
4.622
-8.35397
13.4342
4.43916
-6.34058
2.71028
9.26255
8.87831
-2.82733
6.92033
16.9371
7.29592
-4.14939
-7.11261
15.6272
-3.14945
10.7288
10.1367
4.29108
7.20009
-5.44596
8.72223
10.1901
4.85304
2.74486
2.6226
20.107
8.59771
1.46237
0.882719
0.993411
-14.2242
15.1477
14.6011
14.2155
16.7189
15.4169
3.74741
4.45598
3.34227
14.0126
-3.74937
-2.53666
-3.44926
6.80377
-9.63243
4.04318
8.45915
11.118
2.87672
9.12028
4.27471
4.96935
-12.6201
14.9826
16.6362
-26.7678
8.30975
0.825393
2.30816
12.2051
6.32681
-18.4092
17.3032
16.1357
-6.63464
-6.65277
6.43601
3.47803
3.82061
-3.46784
16.086
5.365
4.143
11.5534
8.93467
10.4097
-1.28581
-1.6361
9.42505
9.18867
9.6898
-5.93861
11.9168
11.8963
-11.6236
-11.3907
4.02462
4.04295
6.93294
7.25665
-7.00877
-7.83984
13.0124
14.0905
11.3338
10.8676
1.84109
2.58704
-5.1437
-4.76991
1.82203
2.44933
-10.078
-4.24197
-5.06231
7.5341
7.31123
-11.085
12.7908
11.7474
12.1362
6.56917
11.1738
5.89654
-8.35733
10.251
12.068
17.1672
4.09768
-11.1432
12.4242
-5.03989
14.9628
19.1157
1.74308
4.00722
10.3859
11.5816
2.38576
3.05594
-8.84047
0.907139
10.7935
3.43954
2.75005
9.35777
3.73307
1.6123
0.899554
7.60211
8.13834
7.9781
6.21774
14.7245
-0.349217
12.3795
9.55779
9.7969
3.21202
2.69894
14.7913
14.9514
2.01899
-5.25829
1.79667
2.33946
-11.3623
-11.3846
8.82727
8.83971
-4.38513
-5.06982
-6.15525
11.4843
11.6069
8.40353
-27.0061
8.53834
9.72333
9.76204
-8.07865
0.677409
10.4891
-10.7588
2.05118
-13.324
-12.0325
-1.04377
0.909481
0.809136
-9.70126
-0.222692
2.76113
3.64073
3.34658
2.73509
3.34727
9.71355
11.4357
11.5157
17.3568
0.500738
-0.00202627
-6.82385
9.55099
5.79269
-7.05972
6.99054
7.01043
7.27554
14.1953
14.5565
13.4177
6.14966
6.23006
5.24594
5.41535
13.3175
12.3909
4.08229
4.69102
-2.13421
14.9258
14.4603
-8.304
15.455
14.8901
15.9571
4.39946
4.1352
3.92323
-10.5328
0.0784024
5.40838
3.62697
4.30077
1.87936
4.34281
4.08199
10.671
10.4118
3.51321
-10.5638
11.5747
-16.6734
1.88956
2.55283
11.0717
10.8608
13.6456
13.2501
-5.52631
6.76498
-11.8231
-11.7993
10.495
11.5354
2.23104
1.75384
2.20072
2.47847
17.8025
18.5086
7.92557
8.13229
13.8009
14.0067
14.3183
14.4388
5.72438
5.14279
-5.8246
-4.78673
1.71099
1.61451
0.823515
0.787652
16.2953
16.899
16.4574
8.98799
8.82663
8.754
5.89876
5.69622
8.70798
8.80494
8.66998
1.19871
0.753108
18.3822
17.4327
8.42186
8.25852
9.57146
9.75454
-10.3247
20.1445
20.1099
1.58689
0.646774
8.41432
8.26163
1.21804
1.40467
3.6012
4.10842
8.25593
6.27864
5.88438
-4.3615
-4.7319
-10.4875
3.31382
2.94599
3.55808
4.15431
14.0281
-5.21308
-6.39205
-5.56001
0.94461
1.81831
2.51987
17.1551
18.0565
4.26104
3.7715
9.96576
10.0901
-1.06419
-1.28369
11.2691
11.3822
0.71802
1.10414
8.56184
8.53783
8.7235
8.5672
8.18551
8.32932
0.319532
-0.667487
13.354
13.3216
-10.2962
-9.43571
14.5365
8.97777
8.17898
8.34883
-4.74715
-5.42995
13.7077
13.4804
-12.2196
5.72581
5.70961
12.2331
11.7298
10.7933
10.9227
5.51455
-13.6789
-12.9845
2.92586
6.80529
9.52296
16.0048
0.915938
5.09336
4.67072
11.8091
12.5665
11.5947
11.8383
11.4959
10.3595
9.89283
-10.6577
-0.399117
9.00258
9.23123
8.97323
9.22779
4.06728
4.00585
2.8475
2.25541
3.46669
4.87391
4.30736
12.085
2.48911
2.54399
2.64136
-8.99246
-9.17133
-9.45315
-0.399467
10.6631
8.552
2.52626
2.76954
1.88678
1.29048
-11.6941
17.0421
16.7369
-15.6404
9.53934
12.4368
0.97445
0.775195
1.47874
1.69406
-1.07215
-0.0283979
0.917277
0.150205
3.29659