/*--------------------------------*- C++ -*----------------------------------*\
  =========                 |
  \\      /  F ield         | OpenFOAM: The Open Source CFD Toolbox
   \\    /   O peration     | Website:  https://openfoam.org
    \\  /    A nd           | Version:  6
     \\/     M anipulation  |
\*---------------------------------------------------------------------------*/
FoamFile
{
    version     2.0;
    format      ascii;
    class       surfaceScalarField;
    location    "100";
    object      phi;
}
// * * * * * * * * * * * * * * * * * * * * * * * * * * * * * * * * * * * * * //

dimensions      [0 3 -1 0 0 0 0];

internalField   nonuniform List<scalar> 
44596
(
1.55072
-2.18296
0.632206
1.5507
1.44593
-1.44593
1.93622
-0.490282
-0.0952677
-2.17059
2.11796
-0.567241
1.33646
-1.33648
0.215674
1.81704
-2.21201
0.766082
-0.267117
2.30045
-0.80598
-1.21673
0.80598
1.312
-0.57251
-1.36779
0.57251
0.76392
-0.603889
-0.825689
0.825686
-1.17065
1.38632
1.19369
0.640343
-1.83402
0.0414367
1.50305
-1.54448
1.42962
-1.42959
-0.148653
-1.69043
1.83912
1.56675
-0.0845632
-1.48221
1.13008
-1.13005
-1.11575
1.11577
1.13739
-1.13742
0.229559
1.25849
-1.48808
1.36184
-1.36183
1.48915
0.0775535
-1.33066
1.33067
0.26427
1.36291
-1.62715
-1.59382
1.59383
0.607195
0.581887
-1.18908
1.94912
-0.519473
-1.26883
-0.218398
1.48723
-1.44681
1.44683
0.706991
1.29282
-0.792748
1.49974
1.47307
-1.76693
0.293872
-1.62431
1.62432
1.0577
-0.828155
1.26006
-1.43265
0.172618
0.970271
-0.970288
1.21269
-1.36135
-2.33164
0.845483
-0.845462
1.02773
-1.11228
1.87321
-1.95774
-1.61036
-0.621775
-0.800186
-0.810173
-0.89671
0.896708
-1.03951
1.08095
1.97765
0.0629715
1.48832
-1.55128
-1.53604
0.135989
1.40006
-1.55128
-0.463738
0.00877236
-1.45556
0.116152
0.214922
0.259229
-1.81051
-1.5077
1.81051
0.536714
-1.22567
2.02586
-1.45554
-0.952772
-0.479858
-1.55063
1.55061
0.897874
-0.385387
-0.512483
-0.814097
0.412027
0.402078
0.701266
-0.116413
-0.584827
-0.00211292
-0.098102
0.100222
-0.060712
-0.0696023
0.130319
0.0634638
1.43959
0.852927
-0.789456
-0.00929665
-1.47291
-1.22155
1.21226
-0.0445809
-0.00170137
0.0462846
0.120835
1.07287
-0.79577
0.552634
0.243145
-1.67669
-0.0137219
-0.35493
0.94323
-0.588313
0.414851
0.604669
-1.01951
0.0464293
-0.891077
0.844644
0.00739406
0.0747412
-0.082131
-0.0427621
0.0145782
0.0281861
0.0930456
-1.0002
0.907145
0.806257
0.633333
0.711203
-0.606514
-0.104683
1.24745
-0.145496
-1.10194
-0.161883
-1.10618
1.26807
1.54903
-1.71089
-0.0250633
-0.017699
0.00499602
-0.0495761
-0.943912
-0.73278
-0.039183
-0.904723
-1.0877
-0.00559633
0.0378548
-0.0322615
-1.31762
-0.155319
-0.438104
-0.879549
0.00776173
-0.803526
-0.806328
-0.682683
-0.619939
-0.327426
0.94736
-1.21267
0.994286
-0.00292269
0.00292373
-1.10246
1.25791
-0.155421
0.257649
0.902975
-1.1606
0.808585
0.077722
-0.886353
0.017885
0.925342
0.91576
0.911623
-0.490838
0.905696
-0.891806
-0.329758
-1.1327
-0.311339
1.44407
-1.20422
0.264472
0.939761
0.54623
-0.870342
0.324129
1.05672
0.943187
-0.757521
0.765584
-0.00805711
-0.894378
1.06702
0.850352
-0.210004
0.252111
-1.19005
0.937955
-0.956696
-1.03073
-0.278128
0.979411
-0.905235
-1.4264
0.944418
0.310628
-1.25504
-0.0105153
-1.41907
1.14322
-0.205251
1.21931
0.758331
1.07645
0.923491
-0.643544
-1.31421
1.08165
0.176823
-1.11496
-0.864605
-1.87038
0.755487
-1.63669
-0.197319
1.17178
-0.74607
-0.42571
-0.0981304
0.808995
-0.710887
-0.959568
0.0800063
0.888992
0.118587
-1.07134
-1.33694
0.423129
-0.9228
0.499685
0.83191
-0.616988
-1.5398
-0.816166
0.336317
0.355621
0.721522
-0.785089
0.0635321
0.818277
-0.702138
0.0520425
-0.0446463
0.0441513
-0.049747
-0.53833
1.03802
-1.24469
0.706359
0.000794135
-0.000794688
0.875361
-0.892203
0.01684
0.129296
-0.000716795
0.000716359
-0.000717031
-1.09477
1.09475
0.868946
0.814412
-0.685108
0.753405
-1.24382
0.490391
-0.718025
0.571382
0.146648
-0.00681967
0.393407
0.459527
-0.56477
-0.241549
-1.53995
1.48664
0.0532646
0.211291
-1.10564
1.54905
0.946576
1.38166
-1.46674
0.0851014
-0.00130974
0.00130919
-0.000593616
-1.00199
0.885585
-0.849229
1.15005
-0.300831
0.819074
1.42627
1.30177
-0.719878
-0.637161
-0.382345
0.664613
2.33718
-0.975357
-0.145645
-0.924598
0.23776
-0.660525
0.42278
0.0566274
0.812332
0.286198
-0.871019
1.05432
-0.0600234
-1.19826
0.954403
-0.248016
-0.133294
0.78654
-0.117057
1.24586
-1.36021
1.35818
0.0020409
-1.04219
-0.502279
-1.53247
-0.766391
0.379686
0.0536274
0.624284
-0.677909
1.20927
-0.152535
-0.150932
1.72577
-0.489
-1.23668
-0.144627
0.769327
-0.41369
-0.638499
-0.231835
-1.4151
1.35013
1.98234
-0.000278193
0.001673
-0.00139769
-0.00150671
-0.00800459
0.00951161
-0.0260849
0.0271115
-0.00102681
0.0407408
-0.0205839
-0.0201572
-0.00362633
-0.00711442
0.0107409
-0.0108243
0.00719797
-0.0376164
-0.00490777
0.042523
-0.0209728
-0.100415
0.121387
-0.00527599
-0.00541862
0.0106946
-0.0698058
0.0519372
0.0178723
-0.110626
0.0705066
0.0401192
0.0841132
-0.0196426
-0.0644737
0.00591863
-0.00572052
-0.000198146
-0.510042
0.331257
0.178764
0.0219567
0.0051081
-0.0270643
0.0067063
-0.00530143
-0.00140486
0.00364315
-0.00364509
0.0039162
-0.00919219
0.00837565
-0.00582314
-0.00255248
0.0122973
-0.0204037
0.00810534
-0.00798477
0.00557054
0.0024142
0.00299445
0.00371183
-0.027412
0.00569397
0.0217181
0.028074
-0.0239589
-0.00411564
0.0122268
0.00264955
-0.0148765
0.0263734
-0.0141467
-0.0534588
0.0102642
0.0431943
-0.0376824
0.0547079
-0.0170251
-0.000661354
0.000661815
-0.00512521
-0.00959822
0.0147243
-0.0122395
-0.0821889
0.0902496
-0.00807401
-0.00232146
-0.0520991
0.0544178
-0.0368833
0.00891944
0.0279639
0.00246737
0.014153
-0.0166203
-0.00355826
-0.00667107
0.0102291
-0.00265949
0.00265992
0.0138188
-0.036508
0.0226889
0.00461664
0.00687908
-0.0114957
0.0104182
-0.00185064
-0.00856758
-0.00924109
0.0839936
-0.0747542
0.0648365
-0.0740784
0.0499023
0.0221997
-0.0721024
0.0656924
-0.0157906
0.00681663
-0.00385354
-0.00296309
-0.00482177
0.0459132
-0.0410923
0.0600147
0.00797304
0.0139851
0.0225521
0.00491441
-0.0211975
0.0162831
-0.0181751
0.0183367
-0.000161517
-0.00653553
-0.0116395
0.0471656
-0.0346867
-0.0124801
-0.0415721
0.00751633
0.0340552
-0.00753184
0.00326433
0.00426753
0.00995341
-0.00743873
-0.00251475
-0.00687288
0.0164311
-0.00955885
-0.0643432
0.0620176
0.0197697
-0.0201769
0.00375132
-0.00557805
0.00182673
-0.0167813
-0.0366774
-0.000209448
-0.00399228
0.00420175
-0.0200518
0.0135163
0.0109322
0.00350986
-0.0144421
0.00387425
-0.0134715
-0.638069
0.310619
-0.00962713
0.00275414
0.000224414
-0.00052094
0.000296683
0.0166349
-0.01255
-0.00408499
0.0111659
0.00546886
-0.00334272
-0.00628457
0.00464882
-0.00799164
0.000935521
-0.00722012
0.00638416
-0.00809802
0.0017139
-0.0020498
-0.00433206
0.00638186
0.000256337
0.00972654
-0.00998288
0.0462222
-0.0359577
0.00853991
-0.0298061
0.0214893
0.00831592
-0.00847548
0.0156324
-0.00715695
-0.00225598
0.0169807
0.0150022
-0.014191
-0.000810535
0.0426439
-0.034104
0.0447689
-0.00212523
-0.0445292
0.010425
0.0615345
-0.673729
0.612195
0.00583619
0.00411723
-0.00321803
-0.0043138
0.0692074
-0.34817
0.278973
0.167645
-0.505408
0.33777
-0.00178453
-0.00618487
0.00796926
-0.00479214
0.00684498
-0.00205288
0.0180063
-0.00684051
-0.000986234
0.0143315
-0.0133452
-0.0274935
0.0112738
0.0162197
-0.0182482
0.0281339
-0.00988631
-0.0457422
0.0394074
-0.00501412
-0.00722477
-0.00831716
0.00925265
-0.0100098
0.00850299
-0.00499242
0.0101004
0.0186035
-0.0341401
0.0482436
-0.0141036
-0.0537143
0.0195738
-0.0071462
0.0177281
-0.010582
0.00543505
-0.0178147
0.0123797
-0.0594137
-0.0512122
0.275886
-0.586115
0.310203
-0.0084938
0.0474565
-0.038964
0.0386711
0.0278123
-0.379665
-0.13034
-0.0171162
-0.00994789
0.00910904
0.0163929
-0.0255001
-0.148174
0.211576
-0.0633887
0.00140219
-0.00140177
0.0478206
-0.0200086
-0.0278142
-0.00729406
0.0106035
-0.00330925
-0.041613
-0.00835565
0.0499661
0.00815722
0.0104465
0.014493
-0.0106663
-0.00382668
0.0066057
0.011731
0.0120408
0.00228892
0.00944213
0.195063
0.115699
-0.310749
0.0244218
0.00864814
-0.0330679
0.000641594
-0.0177572
0.468511
0.12156
-0.590059
-0.759031
-0.132034
-0.00553059
-0.0275363
0.0435271
-0.0056718
0.0379965
0.0361445
-0.0249182
-0.0112297
0.0130059
-0.0452699
-0.00843108
0.00341714
-0.0113591
0.00292802
-0.3978
0.493362
-0.0955665
-0.516727
0.508653
0.0228204
0.0318876
0.0390401
0.0803495
0.0255728
-0.105922
-0.0495146
0.0396279
-0.00127123
0.0403911
-0.000763446
0.00513726
0.0273488
-0.0324861
-0.0364348
-0.00882074
0.00389108
0.00492965
-0.048753
0.00713878
0.00229879
0.025775
0.00968856
0.00164425
-0.0113329
-0.00254236
-0.0100076
-0.00836334
-0.642285
0.497109
0.145186
-0.0196868
0.0200172
-0.000331106
0.00668649
-0.00978888
0.248778
0.24163
-0.4904
0.348773
-0.0999938
0.565751
-0.0109966
-0.00319416
0.00325098
0.013142
-0.00774535
0.0332887
-0.0353999
0.0365171
-0.0315196
-0.0669171
0.32837
-0.150799
-0.177571
0.0034031
0.00449384
-0.00789693
-0.0044955
0.00758508
-0.00308966
-0.00625257
-0.015285
0.0215389
0.0111126
-0.0173643
-0.0168472
0.00910132
0.0025376
-0.0193854
0.0171956
-0.00809437
0.0304921
0.0286517
-0.0591443
0.0396972
-0.00698026
-0.0327201
-0.0128782
-0.0540374
0.0421573
0.00199496
0.0292788
0.00904852
-0.00140299
-0.00764553
0.0026736
0.00637492
-0.011287
-0.0136531
0.024939
0.0116181
0.00790629
-0.0195252
-0.00574698
0.00294074
-0.00773291
-0.00618223
-0.0212306
0.0202037
-0.00790702
0.00436959
-0.00998101
0.00561153
-0.008642
0.00836343
0.000278496
-0.0307306
0.0130315
-0.00726591
0.0365446
0.0178118
-0.0181874
0.00037733
0.0216865
-0.0242016
0.927181
0.212202
0.602219
-0.449962
-0.188529
-0.0128531
-0.00533309
0.00324116
-0.0160926
0.0126063
-0.0179379
-0.0526288
0.0122827
0.0403478
0.000691607
-0.0602719
0.0595852
0.00832054
0.00954137
-0.017862
-0.0109701
-0.00855514
0.0271561
0.000192768
-0.00227678
-0.021682
0.0248794
0.0074906
-0.00131739
-0.00617324
0.00565256
0.00183804
-0.00682587
0.00550848
0.0164901
-0.0140228
-0.535084
0.598609
-0.519237
0.599656
-0.0804118
-0.00346732
-0.00573525
0.00920261
0.0297912
-0.0905014
0.0310589
-0.0172403
0.00497384
0.0275284
0.0141549
0.00753281
0.0180999
-0.00394371
-0.0172872
0.0248221
0.0667014
-0.0583221
-0.00838586
0.00570752
-0.0243053
0.0185975
0.0248439
-0.0118392
0.0305515
0.323135
-0.340983
0.0178459
0.00398847
0.0105047
-0.00894308
-0.00241579
-0.00495456
0.00808917
0.493354
0.941968
-1.43532
0.00149887
-0.00149856
-0.569111
-0.0581138
0.627208
-0.815685
1.30904
0.000885898
-9.20311e-05
0.465684
-0.404137
-1.0578
1.05783
0.131791
0.944666
-0.886344
0.651424
0.234924
-0.410838
-0.475498
1.2434
-0.272501
-0.97092
0.174125
-0.0956502
-0.0784699
-0.529072
-0.11321
-0.0972713
-0.4318
-0.783406
0.876453
0.181521
0.322825
-0.504327
0.376589
0.0379989
0.661115
-0.699098
0.487962
-0.449948
0.125433
-0.0450852
0.60161
-0.625809
0.541143
0.0604671
0.143397
-0.113601
0.484283
-0.240422
-0.243859
0.191943
0.292339
-0.00061096
0.000432884
0.000178446
-1.01734
-0.144503
0.570649
-0.426165
0.00299626
-0.00299383
0.402308
-0.943024
0.540718
-0.551293
0.604921
-0.304448
0.590654
0.0829639
0.0604367
-0.618399
-0.211316
0.829689
-0.0973609
-0.0394389
0.136797
0.0280696
-0.154406
0.00485555
0.149555
0.644603
-0.704077
0.0856581
-0.338026
-0.366066
-0.69859
0.360556
-0.922211
0.0490266
-1.01071
0.762705
-0.166079
-0.435489
-0.238236
-0.654326
0.422504
-0.129422
0.363939
-0.876111
0.490709
-0.608945
-0.267175
-0.00299662
0.00299816
0.000316339
-0.000148449
-0.000167825
1.04712
-0.158149
-0.00762353
-0.667081
0.67471
0.947029
-0.630077
-0.316956
0.338088
0.215647
-0.706479
0.663318
-0.0994183
-0.563922
0.882681
0.737185
-0.310182
0.712499
0.0303147
0.0581265
0.00602647
-0.187365
0.233737
-0.0463676
0.216097
0.428507
-1.16093
1.16088
-0.482584
-0.216039
-0.726537
-0.273644
0.803218
-0.312507
0.0766838
0.269087
0.196602
-0.00167223
0.00046741
0.00120483
0.797795
-0.521931
0.315205
-0.0233596
-0.0929609
-0.0104033
0.00544904
0.805431
-0.94995
-0.458214
2.00878
1.02842
-0.539088
0.354547
0.184558
-0.269999
-0.329246
-0.328902
0.658148
0.0399522
0.244286
-1.48813
0.851706
-0.607423
-0.0909578
-0.258295
0.349259
-0.278321
1.19967
-0.0575197
0.0407386
-0.0353197
-0.583306
-0.200098
1.07498
0.24942
-0.586716
0.337315
-0.839422
-0.589993
-0.795979
0.249834
-1.04582
-0.014779
-0.0129759
0.0527166
0.0598263
-0.95202
0.720945
0.0012459
-0.00424125
1.2193
-0.678941
1.89822
0.219888
1.04091
-0.82101
0.943637
-0.92405
-0.0932888
-0.297353
-0.289334
0.650017
-0.0199656
0.00267915
-0.0195875
-0.029727
0.0101413
0.106172
-0.647315
0.728162
-0.0808426
0.296363
-0.599745
0.973685
-0.373945
-0.0291008
0.776319
1.02233
-1.16699
0.0084849
-0.642469
0.263232
-0.139683
-0.00281489
0.0276379
0.0410546
0.192687
-0.0725455
1.28492
0.212115
0.859228
0.0385759
-0.0310599
0.00388921
0.0138684
-0.106827
-0.0766321
-0.149176
-0.0210949
-0.0657398
0.417836
-0.498678
0.514166
-0.0963241
0.347368
0.166806
0.415234
-1.34282
0.156929
0.0358462
-0.49461
-0.165898
-0.458753
0.574447
0.0377554
-0.458709
0.292814
-0.106637
-0.352058
-0.364927
1.14029
0.141384
0.830365
-0.688996
0.557852
0.00131308
0.000185157
-0.000294487
-0.796148
-0.464891
-0.596932
0.0264859
1.39166
0.712735
-0.754002
-0.00701891
0.00830483
-0.00128593
0.00243177
-0.0094507
-0.000227401
0.00568464
-0.00545724
-0.00158115
-0.00620045
0.00778163
-0.144507
0.264342
-0.119825
0.00556502
-0.00479579
-0.000769263
0.00722855
-0.00281405
-0.0044145
-0.0117842
0.00918058
0.00260197
-0.00422607
0.00431783
-9.17726e-05
-0.0109049
0.0108147
9.01506e-05
0.0117806
-0.00189183
-0.00988882
0.0034347
0.00834597
-0.0119264
0.000514141
0.0114122
0.00664547
-0.00333329
-0.00331217
0.00164856
0.00499691
-0.0132531
0.00530415
0.00794897
0.0051923
-0.0184453
-0.00498396
-0.00319819
0.00818215
-0.0084014
-0.000946107
0.0093475
0.00187978
0.00810705
-0.00998684
0.00450734
0.00135463
-0.00586199
0.00497863
-0.00928152
0.00430287
0.00881705
-0.0100995
0.00128246
0.00164452
0.00717254
-0.0066187
0.00293652
0.00368217
-0.00244695
-0.00417175
0.00311948
-0.00704445
0.00392497
-0.00108846
0.0088508
-0.00776233
-0.00298512
0.00461121
-0.00162563
-0.0061968
0.00499759
0.00119985
-0.00155474
-0.00192028
0.00347526
0.00242262
-0.00397717
-0.00181304
0.00817875
-0.00636571
-0.00703309
0.00153155
0.00550153
-0.00211062
-0.00492248
0.00528757
-0.00837522
0.00308765
0.0010703
0.00374093
-0.00481125
0.00667988
-0.00755248
0.000872611
0.00511404
-0.0028863
-0.00222765
0.00381173
0.00240949
-0.00622122
0.00249593
-0.0039383
0.00144236
-0.00682312
0.00183915
0.00806344
0.0021998
-0.0102633
0.00588171
0.00218164
0.00313676
0.00569696
-0.00883372
0.00831347
-0.00913333
0.000819869
0.00618558
0.00211184
-0.00829744
-0.00702167
-0.000418909
0.00744046
-0.0072026
8.33539e-05
0.00711931
-0.00322941
0.00634888
0.00739305
-0.011057
0.00366397
-0.0101131
-0.000791816
-0.00552143
-0.00459163
-0.025917
0.0196105
0.00630565
-0.00156041
-0.345344
0.346944
-0.00829916
0.00474033
0.00355883
-0.0061215
0.00649922
-0.000377727
0.194667
-0.196206
-0.00290484
-0.00394092
0.00684584
-0.00975381
0.00154733
0.00820648
-0.0026281
-0.00712572
0.0199223
-0.0116313
-0.00829104
0.000151691
0.0197704
0.00754117
-0.00154205
-0.00599912
0.00350833
0.00403285
-0.00639681
0.0105518
-0.00415498
0.00585733
-0.00722242
0.00136509
0.00759462
-0.00594609
-0.000758169
0.0103876
-0.00962944
0.00557954
-0.00596845
0.000388919
0.00318971
-0.00700193
0.0038122
0.00869009
-0.00869031
0.00162998
0.0120957
-0.0137255
-0.0105863
0.00584467
0.00474159
-0.00855181
0.00242751
0.00612431
0.00839415
-0.00839415
0.00775923
-0.00775928
0.000667444
0.00818547
-0.00885293
0.0598149
-0.0349847
-0.0248319
-0.00392943
-0.00553628
0.00946572
-0.000786143
0.00128893
-0.00050788
-0.0192839
0.00482592
0.0144583
0.0100602
-0.0293441
0.00396835
0.00364619
-0.00761455
0.00498439
0.000934225
-0.00181254
-0.00501335
-0.00372767
0.0146599
-0.0045385
-0.00536012
0.00989861
0.00682604
-0.00156488
-0.0052612
-0.00813105
-0.00494329
0.013074
-0.0189708
0.00847087
0.0105001
-0.0111362
0.00731418
0.00382206
-0.0036424
0.00721487
-0.00357247
0.00171731
-0.00535972
0.00740089
-0.00470284
-0.00269804
0.00440297
0.00238911
-0.00679212
-0.00793525
-0.0013573
0.00929256
-0.00440831
-0.00352694
-0.00169598
-0.00699707
0.00869304
0.00279549
-0.00661373
0.00381824
-0.00373257
0.00823149
-0.00449877
0.00117705
0.00541273
-0.00658975
-0.00235193
-0.00335859
0.00571057
0.0085296
-0.00502002
-0.00350959
-0.00405979
-0.00124985
0.00530958
0.00900805
-0.00458192
-0.00442616
0.00417556
0.00463892
-0.00881437
-0.00819489
0.00781866
0.000376262
-0.00749286
0.00780737
-0.000314518
-0.00710726
0.0114208
-0.00431351
0.00640239
0.00109203
-0.00749442
0.00720459
0.000865024
-0.00806961
0.00922612
-0.00325007
-0.00597604
0.00281757
-0.00710667
0.0042891
0.00282013
-0.00755417
0.00473403
0.00581457
-0.00292444
0.00661506
-0.00369062
-0.0078396
0.00138784
0.00645177
-0.0179495
0.0153654
0.00258365
0.00315037
-0.00614837
0.002998
0.00324731
0.00442327
-0.0076706
-0.00571107
-0.00121876
0.00692981
0.000776695
-0.00648777
0.00759902
-0.00138036
-0.00621867
0.00933123
-0.00173222
0.0222541
0.0375615
0.00445481
0.00384715
-0.00830197
0.010265
-0.0100025
-0.000262547
0.0127056
-0.012709
0.00566731
0.00315811
-0.0088254
-0.00454153
-0.00312462
0.00766616
0.0133378
0.0248085
-0.0381465
-0.00323692
0.00827406
-0.00503715
0.00176013
0.00606557
-0.00782571
0.0128793
-0.0112081
-0.001671
-0.00478649
0.00181772
0.00296874
0.00842128
0.00149396
-0.00991519
-0.00362398
0.0061199
-0.00249592
0.00662804
0.00469441
-0.0113224
0.000416465
0.00620234
-0.00661881
-0.0027117
-0.00648934
0.00920103
-0.000584418
0.00711391
-0.00652949
-0.0259101
0.0436197
-0.0177091
0.0335971
-0.0595074
-0.00828627
0.00185379
0.00643247
-0.00408691
-0.00419936
-0.00988291
-0.00184155
0.0117244
0.0097054
-0.00455322
-0.00515226
-0.0105591
0.00667045
0.0038887
-0.00519463
0.00819277
-0.00299807
0.000916298
-0.00649542
0.00557912
-0.00184573
-0.00417408
0.00601981
-0.00866506
0.00218669
0.00647837
0.00156082
0.00307274
-0.00463343
-0.00345966
-0.000766411
-0.00154211
-0.00550464
0.00704675
0.00927244
-0.00857716
-0.000695276
0.00947772
-0.0111737
0.011044
-0.00837041
0.0012659
0.00440972
-0.00567562
0.00772613
-0.00646021
-0.00724546
0.00889909
-0.0016538
-0.00603126
-0.00121397
0.00203194
0.00609559
-0.00812752
-0.00862114
0.00849444
0.000126708
-0.00531974
-0.00330139
0.00725714
-0.0070423
-0.000214843
0.00701589
-0.00946284
8.85213e-05
-0.00662041
0.00653186
-0.00262985
0.00576661
0.00516069
-0.00779054
-0.00819177
-0.00389603
0.0120878
-0.00721088
-0.00389508
0.011106
-0.0124892
0.00549214
-0.0054117
0.0030598
-8.55048e-05
0.00514525
-0.00505974
0.00549856
-0.0049382
-0.000560366
0.0018088
0.00368975
-0.00199788
0.00805258
-0.00605469
0.00487827
-0.00698889
0.0320578
-0.0154909
-0.0165674
0.0343032
-0.00224606
-0.0305203
-0.0059879
0.0100967
-0.00902847
-0.00106824
0.00738501
0.0118832
-0.012131
0.000247305
9.87652e-05
-0.0143562
0.00222863
0.00507744
-0.013553
0.00676259
0.00285889
-0.00962149
-0.00859344
0.00979392
-0.00120048
-0.00754576
-0.000454288
0.00800004
0.0031487
0.00744694
-0.0105957
0.00795411
-0.00779582
-0.000158359
0.00565178
0.00141164
-0.00706344
-0.0254125
-0.0105803
0.0359924
0.00654859
-0.00978551
-0.00633976
0.010811
-0.00447107
-0.00693209
0.00069227
0.00623982
-0.000130541
-0.00910493
0.00923547
0.00971971
0.000789142
-0.0105088
0.00293786
0.00431944
-0.00725731
0.00787224
-0.0103799
0.00250764
0.00392741
0.00156778
-0.00549518
0.127558
-0.0485702
-0.078987
0.000520387
0.00870573
0.00772498
0.00422092
0.00529219
-0.00951312
-0.0019074
0.00760772
-0.0057003
0.00237784
0.00442276
-0.0068006
-0.00958424
0.00484542
0.00473882
-0.00141588
-0.00677901
-0.0104182
0.0237093
-0.0132905
-0.00420949
-0.00383893
0.00804844
0.000238045
0.00597201
-0.00621006
0.00322517
0.00821307
-0.0114381
0.00733596
-0.00920483
0.00186889
0.011358
-0.00792324
0.00998982
-0.00764748
-0.00234229
0.00252703
-0.00938261
0.00685558
-0.00448983
0.00701686
-3.87516e-05
0.00634726
-0.0063085
0.00964854
-0.00642337
0.00588832
0.00341394
-0.00930227
0.00600299
0.001333
-0.00252951
0.00853246
0.00954608
-0.00600157
0.0095099
0.00879394
-0.00350637
-0.0015661
0.00819414
-0.00854082
0.0067278
-0.0191146
0.00427293
0.0148418
-0.0116527
-0.00746195
-0.00583601
0.0030559
0.00278017
-0.00452792
-0.00130809
-0.000766025
0.00536234
-0.00459633
0.00391463
-0.00855078
0.00463614
0.0287093
0.0397371
-0.0684486
-0.0426162
-0.0218589
-0.0139072
0.00360913
0.00211594
-0.00572507
0.00498823
0.000576779
-0.00305878
0.012279
-0.00922013
0.000630808
-0.0064983
0.00586743
-0.00988999
0.00651673
0.0033732
-0.00796881
0.00433067
0.00363813
-0.00708934
0.00821025
-0.00112092
0.00455412
0.0132255
-0.0177794
0.00974646
0.00504685
0.00817886
-0.00638752
0.0111339
-0.00474638
-0.00786575
-0.00319585
0.0110616
-0.00410825
-0.00391891
0.00802714
-0.00200275
-0.00664837
0.0086511
0.00191633
-0.00897189
0.00705554
0.00674657
-0.00999664
0.0108895
0.000148765
-0.0110383
0.00936896
0.00156918
-0.0109382
0.00578726
-0.0142912
0.00850206
0.00179871
-0.00860114
0.00680243
-0.00514157
0.0114488
-0.00630725
0.00602211
0.000824102
-0.0068462
-0.00119121
-0.00799696
0.00918817
0.00702446
-0.00646532
-0.000559077
-0.000178137
0.00149406
0.00295534
-0.00444913
0.00918883
0.000180114
0.00705866
0.00213014
0.0110697
0.00682813
-0.0120779
0.00524643
-0.00835355
0.00785389
0.00049962
-0.00438803
-0.00396554
-0.000558316
-0.00915132
0.00970963
0.00691644
-0.00534727
-0.00145321
-0.00995395
0.0114072
-0.0099139
0.00846069
-0.00590602
0.0100324
-0.00412642
-0.00668249
-0.00219008
0.00887257
-0.0134395
0.00856312
0.00487682
0.0187808
-0.0199124
0.00112895
-0.0377305
0.000112919
0.0746717
0.0528866
0.0114289
-0.0027234
-0.00870544
0.0158495
-0.0109349
0.00796739
0.00745336
-0.0154206
0.0105372
-0.00850524
0.00198365
0.00855353
-0.0071505
0.00913414
7.086e-05
-0.00952976
0.00945891
-0.00327679
-0.00171831
0.00499506
-0.0373716
0.0202603
0.0171111
0.0329927
-0.0290554
-0.00393747
-0.00345699
-0.00168033
0.00513738
-0.0363826
0.0233991
0.0129831
0.00422159
-0.0109696
0.00674753
0.000274275
-0.00896191
0.00868764
0.00123977
-0.00933557
0.00809575
-0.0111015
0.00249976
0.00860169
-0.00513161
0.00844085
-0.00330926
-0.00367905
0.00785466
0.00532903
-0.00196584
0.00729458
-0.0053287
0.000945456
0.00200804
-0.00295358
-0.00723509
-0.00121376
0.00844886
-0.000318304
-0.00564752
0.00596589
0.000416216
0.00501051
-0.0054268
0.00196065
0.00373708
-0.00569778
-0.00153663
-0.00727739
0.00881403
0.00619583
-0.0102297
0.0040339
0.00587406
-0.00517236
-0.000701724
-0.00206661
-0.00537214
0.00380745
-0.00863277
0.00490031
-0.00837817
0.00781985
-0.00841271
0.000916085
0.0074966
-0.00874837
0.00931927
-0.000570897
-0.00683204
-0.00375562
-0.0087336
-0.0109665
-0.00287169
-0.00708227
-0.00997895
-0.000966474
-0.00611581
0.00536226
-0.00860113
0.00323886
0.00927689
0.000599432
-0.00539524
0.00881994
-0.00921815
0.000398214
0.00197849
0.00684145
-0.00877775
0.00563516
0.00314258
-0.00679974
-0.0025519
0.00935162
-0.0125922
0.010439
0.00215312
-0.00519007
-0.00740211
-0.00120194
0.00375729
-0.00255543
0.00173678
0.00231791
-0.00405478
0.000914403
-0.00754853
0.00663413
0.00989335
0.0065376
0.0141149
0.149844
-0.245418
-0.195498
-0.00103725
-0.00655868
0.00759593
-0.00531491
0.00427766
-0.00557888
0.011328
-0.0057491
-0.00504547
0.00694943
-0.00190392
0.0205265
-0.0171244
-0.00340111
6.06808e-05
-0.00536211
-0.0189394
-0.0204437
0.0393822
0.0162548
-0.0351944
0.0131758
-0.0148375
0.00166167
0.00475395
0.00566191
-0.0104159
0.019384
-0.0122399
-0.00714423
-0.0100942
0.0164839
-0.00638986
-0.0125481
0.0253922
-0.0128434
0.0145634
0.031513
-0.00612028
0.00259022
0.00494438
-0.00753459
0.0181492
0.0225913
0.0395873
-0.0216443
-0.0179431
0.00964714
-0.0114309
0.00178381
-0.00872524
0.0094569
-0.000731656
-0.00876962
-0.0022002
-0.00601545
-0.00729417
0.00509411
0.0145264
-0.0114109
-0.0031152
-0.0299382
-0.019044
0.0489819
-0.050558
0.0184756
0.0320809
0.0119337
0.000919925
-0.0128535
-0.00731568
0.00464322
0.00267248
0.0022161
-0.00514428
0.00292817
0.00391431
0.00121445
-0.00512876
0.00613041
0.00543448
-0.000749557
-0.00468501
0.00556827
-0.00439123
-0.00240054
0.00450789
-0.00820245
0.00369457
0.00777222
-0.010079
0.00911024
0.000968773
-0.00596001
-0.00411899
-0.00149225
-0.00541618
0.00690845
-0.000182843
0.00828156
-0.00809872
0.00852329
-0.00870613
-0.0017565
0.0112342
0.00928752
0.000421928
0.00521248
-0.00563442
-0.00448435
0.00490627
0.0083391
0.00817247
-0.0165117
-0.00849079
-0.00945879
-0.00128636
-0.00236268
-0.00721932
0.009582
0.00528833
-0.00765101
-0.000775313
-0.00644402
0.00063869
-0.00996746
0.00932887
0.00361271
0.00597231
-0.00958501
0.0105079
-0.00431206
-0.00605888
0.00428477
0.00177407
0.00903261
-0.00351109
-0.00552151
-0.00938771
0.00938701
-0.0214796
-0.00804561
0.0295244
-0.00733069
0.00594814
0.00138256
-0.00425201
-0.00106288
0.0254372
0.0039432
-0.0293803
0.0134529
0.0119844
-0.0213132
0.0252566
0.0059664
-0.00471765
-0.00124875
-0.00235509
-0.00445985
0.00681493
0.00361131
-0.0131386
-0.00583152
0.00891586
0.00561045
-0.00120017
0.010116
-0.00739154
0.0130017
0.00947389
0.000517626
-0.00999141
0.00454544
0.00492847
-0.0120174
0.0125351
-0.00574644
0.00637722
0.00529721
0.00541694
-0.0107142
-0.00583903
-0.00337277
0.0101354
-0.00307166
0.00587874
-0.00280691
0.00194893
-0.00662895
0.00468002
0.00854564
-0.000993059
-0.00755271
0.00229925
-0.0109623
0.00866303
-0.00513154
-0.0026118
0.00774333
-0.00569982
0.00496622
0.000733597
-0.0484488
0.0649589
-0.0165099
0.00516035
-0.00908977
0.00919047
-0.0027194
-0.00647107
0.00132472
0.0595806
-0.0366409
-0.0229391
0.00231536
0.00441206
-0.00672746
0.00734269
-0.00502736
0.00703417
-0.00262206
0.0084054
-0.020058
-0.0447405
0.0262512
0.0184892
0.0383808
-0.0152438
-0.0231373
-0.0183085
0.0214453
-0.00313641
0.0174274
0.000382241
-0.0178095
0.00673314
0.00408157
0.00797293
-0.00515026
0.00923169
-0.0286397
0.0130979
0.0155434
0.00921876
-0.00988086
0.000662099
0.00381117
0.00540758
-0.0063
-0.00356132
0.00986133
0.00510716
0.00634161
-0.00887116
-0.00180869
-0.00569168
0.00750036
-0.00904815
0.00484212
0.00420604
-0.0108568
0.00295534
-0.0107091
0.00775379
-0.00935701
0.0072683
0.00208871
-0.00640167
0.0026604
-0.0038956
0.00123509
0.00248634
-0.00921945
0.00673312
-0.00360182
0.00360348
-0.0013004
0.0081486
-0.0068482
0.00265215
0.00601552
-0.00866769
0.0193345
0.0202527
0.000698941
0.00767039
-0.0083693
-0.00392039
0.00392202
0.00419049
0.0041852
-0.00267075
0.00686125
-0.00883691
0.0094757
0.00186713
-0.00702224
0.00515508
0.00709027
-0.00225464
-0.00483562
0.00895743
0.00420702
0.00260117
-0.00680819
-0.00390801
0.00673899
-0.00283098
-0.00715822
0.00661104
0.000547171
0.0074622
-0.000639239
-0.00682298
-0.00579336
-0.00119686
0.00699023
-0.00701211
0.000898928
0.00494354
-0.00584247
-0.0029512
0.00647901
-0.00352783
0.000823195
0.00662015
-0.00744335
0.00691837
-0.00609518
0.00251951
-0.00251745
0.0083218
0.00310478
-0.0114266
0.00395239
0.0043694
-0.00497106
0.00807584
0.0102287
-0.00825023
0.00221543
0.00750428
0.00960848
0.00737374
0.00434252
-0.00240665
-0.00193588
-0.00122672
-0.00471252
0.00593926
0.00399261
-0.00521932
-0.000367842
0.00692292
-0.00655506
0.00539057
-0.00575841
0.00552481
-5.91724e-05
-0.00546564
0.0177208
-0.0154751
-0.00224596
-0.00762658
0.0192064
-0.0115799
0.0272969
-0.0114826
-0.0158136
0.0261383
0.00115879
0.0200304
-0.0132704
0.00526608
8.00968e-05
0.00752676
-0.00760686
0.0068556
-0.00666131
-0.000194294
0.0105928
-0.00708296
0.00175784
-0.00994958
0.0123506
0.00226707
-0.00226584
0.00449542
-0.00460158
0.000106139
-0.00617606
0.00897154
0.00834725
-0.0109754
0.0220071
-0.00866911
0.0073732
-0.0231867
-0.0318554
0.00955746
-0.00296497
-0.0065925
0.00240695
-0.0084521
0.000521479
0.00793057
-0.00801267
0.00917925
-0.0011666
0.0309971
0.000890171
-0.00634971
0.00635211
-0.00481687
0.00653418
-0.00696825
0.00404381
-0.0273356
0.00775962
0.0195749
-0.0194131
-0.00792281
0.0320561
-0.0242968
0.00281286
-0.00281177
-0.0161909
-0.00779984
0.0239907
-0.0224147
0.0140509
0.0083637
0.00150199
-0.00150101
0.00142044
-0.00142001
0.00269342
-0.000270505
0.00445292
0.00164035
-0.00609327
0.00436741
0.00479071
0.00578982
0.00115928
-0.0069491
0.00203382
0.00491981
-0.00695363
0.000616327
0.00662621
-0.00724253
-0.035584
0.0193932
0.00440229
0.00258255
-0.00698483
0.00676515
-0.00840707
0.0016419
-0.00463415
0.00733112
-0.00269698
0.00213099
0.00690475
-0.00504932
-0.00185544
0.00407529
0.00282946
-0.00592561
-0.000633054
-0.000802446
0.000803845
-0.0215295
0.0372155
-0.015686
-0.0254927
-0.000191589
0.0256835
-0.017029
-0.00846384
0.0198529
-0.0200448
0.0111403
-0.0026698
0.0030092
-0.00803664
-0.00335068
0.0113873
-0.0110954
0.00925118
-0.0126019
0.0200315
-0.0133321
-0.00669953
-2.03021e-05
-0.0303971
0.0170648
0.00919564
-0.00354387
-0.00206576
0.00206741
0.00609859
-0.011249
-0.0120723
-0.00288576
0.0149581
0.024741
-0.0307638
0.00602307
-0.00945962
0.0342007
-0.00212753
0.00787384
-0.00574631
-0.00893425
0.00680671
-0.0040543
0.00682859
-0.00277432
0.00299861
-0.00565114
0.0026525
-0.00991416
0.0101884
-0.0073576
0.00230828
-0.00196703
-0.00635679
0.00100508
0.00822689
-0.00923196
0.00747089
-0.00646581
-0.00730971
0.010847
-0.00353727
0.0061412
-0.00858429
0.00244311
0.00731072
-0.0100301
-0.000858326
0.000858927
0.000938075
-0.000937295
0.0161519
-0.00865261
-0.00749937
0.007414
-0.00475418
-0.00265971
0.00729888
0.000115171
-0.00728158
0.00174531
-0.00360417
-0.0036774
-0.00878995
0.00365841
-0.00360565
-0.00725117
-0.0089254
-0.000172837
-0.00476916
0.00494199
-0.0373202
0.0163887
0.0209315
-0.0273958
-0.00898716
0.000376312
-0.00746565
0.00751031
-4.81108e-05
-0.00353887
-0.00466436
0.00820324
-0.00177825
0.0126686
-0.0108904
0.0143294
0.00302059
-0.0173518
0.00309563
-0.00657177
0.00347614
-0.00209081
0.00518644
-0.00303956
0.0076562
0.00737867
-0.00348987
0.0114051
-0.00791524
-0.0107996
-0.00128233
0.00128364
5.86673e-05
-0.00133931
-0.00914918
0.00929792
-0.00467808
0.00661956
-0.00194147
0.00109153
-0.00576962