/*--------------------------------*- C++ -*----------------------------------*\
  =========                 |
  \\      /  F ield         | OpenFOAM: The Open Source CFD Toolbox
   \\    /   O peration     | Website:  https://openfoam.org
    \\  /    A nd           | Version:  6
     \\/     M anipulation  |
\*---------------------------------------------------------------------------*/
FoamFile
{
    version     2.0;
    format      ascii;
    class       volVectorField;
    location    "100";
    object      U;
}
// * * * * * * * * * * * * * * * * * * * * * * * * * * * * * * * * * * * * * //

dimensions      [0 1 -1 0 0 0 0];

internalField   nonuniform List<vector> 
29874
(
(7.59517 0.0641074 1.02355e-16)
(5.43774 0.0288423 -9.08125e-17)
(5.42175 -0.121132 1.56847e-16)
(7.10604 -0.0820369 -7.62723e-17)
(7.89403 -0.119904 0)
(7.4932 0.00803176 -1.00916e-16)
(4.86882 0.100559 -3.45269e-18)
(7.12426 0.016632 6.84715e-18)
(7.44728 -0.00555474 -4.634e-18)
(7.19156 0.211469 -1.77444e-17)
(7.26169 -0.116287 0)
(7.29467 0.108329 -3.78864e-17)
(4.47776 -0.0549603 9.83217e-17)
(8.3456 0.0532861 0)
(6.85163 0.203242 1.07114e-16)
(6.74006 0.14231 0)
(4.35602 -0.0212047 0)
(7.93493 0.216914 -1.40404e-16)
(4.96136 -0.0405452 -1.2028e-16)
(7.99492 -0.0709043 -1.01386e-17)
(7.11886 -0.0229192 4.42932e-17)
(7.07034 -0.0264607 -2.62336e-17)
(7.04093 0.0480861 -1.20797e-16)
(7.51958 0.0286971 0)
(5.77212 0.292229 0)
(7.8383 -0.00798583 -3.08924e-17)
(8.06721 -0.0257834 -8.37904e-17)
(5.09194 0.117726 1.29343e-16)
(5.37727 0.125881 4.78071e-17)
(5.00943 -0.113653 4.11405e-17)
(8.13207 -0.056619 -2.41995e-17)
(5.297 -0.0994022 -2.16535e-16)
(7.94486 0.0680088 0)
(5.24322 -0.031191 -5.20021e-17)
(7.44543 0.10379 3.28111e-17)
(5.52597 0.103171 -9.7789e-18)
(7.07241 -0.0243874 0)
(7.3104 0.306541 -4.73278e-18)
(7.59653 -0.0947054 -4.4233e-17)
(5.4169 0.0258947 0)
(7.00044 0.00959051 -5.39862e-17)
(7.03006 -0.0220096 1.09366e-16)
(7.31175 0.00339822 0)
(5.63614 0.0434078 -2.14161e-17)
(8.0829 -0.0825972 7.057e-17)
(7.52295 0.0499064 0)
(4.78645 -0.151368 0)
(8.56492 0.0421511 0)
(7.32195 -0.0609923 5.25137e-18)
(7.23505 -0.11189 -5.83075e-17)
(4.56099 0.142702 -1.08945e-16)
(8.00931 -0.0878412 0)
(6.89381 0.00554378 -4.28606e-17)
(6.71315 0.0800506 4.707e-17)
(7.77923 0.16741 -1.84581e-17)
(7.8219 -0.00114771 5.09195e-17)
(4.68116 -0.0779364 0)
(8.13889 0.0248172 0)
(7.11705 -0.0654661 0)
(7.03406 0.0803312 3.25657e-18)
(7.27612 -0.130646 2.06943e-18)
(7.24189 0.00989488 -8.85765e-17)
(7.22626 -0.2379 -2.09517e-18)
(7.49218 0.0114381 0)
(5.81506 0.0527261 -2.9108e-17)
(7.51294 0.021292 -3.71868e-17)
(7.84955 0.147751 -9.62512e-21)
(7.69293 0.0114287 5.09891e-17)
(7.73369 -0.0885746 2.42912e-17)
(7.57333 -0.0772387 2.43559e-17)
(8.25285 -0.140581 2.49327e-17)
(7.61561 0.0151882 3.61995e-17)
(7.53149 0.103406 -3.4638e-16)
(5.65364 -0.133405 4.29809e-16)
(7.16921 -0.125616 4.45592e-17)
(8.18458 0.12845 0)
(7.91624 -0.104075 -1.64819e-17)
(8.11846 -0.0955564 1.66127e-17)
(5.06187 0.110075 6.17335e-16)
(7.44135 0.0955048 -1.62004e-16)
(5.35415 -0.0908838 -4.89605e-17)
(7.12695 -0.132408 1.73492e-18)
(6.97442 0.126599 0)
(7.40516 0.168881 -1.79847e-17)
(4.98346 -0.470897 0)
(5.3735 -0.36429 -3.36977e-17)
(7.35645 -0.00123528 -1.27599e-17)
(7.02815 0.0275755 6.1564e-17)
(8.02373 -0.0819481 8.95983e-17)
(7.63826 -0.0371124 4.70954e-17)
(4.3165 -0.586916 -3.73044e-18)
(7.01221 0.0616003 5.92371e-17)
(6.96687 0.105428 -3.43206e-17)
(7.53372 -0.0298926 3.37401e-17)
(7.32073 -0.122263 0)
(6.74296 0.0551177 0)
(7.16641 -0.208102 -7.82299e-18)
(5.01805 -0.187457 7.30301e-18)
(4.19367 -0.349857 -1.69376e-17)
(6.28786 -0.0446572 1.50112e-17)
(7.51512 0.0376421 1.19144e-17)
(7.01749 0.077135 2.36401e-17)
(6.99394 0.0749812 0)
(7.42408 0.0644631 -7.67961e-17)
(7.17649 0.0816165 -5.82017e-17)
(4.28719 -0.252014 3.06685e-17)
(4.44656 -0.478122 -2.47839e-17)
(7.5641 0.0162777 1.83651e-18)
(7.65465 0.0216348 0)
(7.32521 -0.122389 -2.7693e-18)
(4.57963 -0.0531715 -2.14503e-17)
(8.02486 -0.143712 7.48662e-17)
(8.08127 -0.140214 -8.05012e-17)
(6.97615 0.0982394 0)
(6.98027 0.108531 0)
(6.99034 0.0837461 -7.36723e-17)
(6.97952 -0.273649 5.91338e-18)
(7.31844 -0.168295 7.66809e-17)
(-2.24993 -0.312161 -1.18178e-17)
(7.05499 0.0693716 2.83012e-17)
(6.99125 0.102714 4.97763e-17)
(8.22223 -0.124931 -9.4551e-17)
(7.30326 -0.0990905 -3.01925e-19)
(7.17665 -0.121295 9.02934e-18)
(7.36684 -0.128777 1.36735e-17)
(6.71198 0.103464 -4.22744e-18)
(7.55707 -0.106228 0)
(7.22433 0.218529 -2.24697e-17)
(7.04718 0.0838549 -5.37567e-17)
(6.69708 -0.269951 3.25298e-17)
(6.99959 0.00587277 0)
(6.87011 -0.245505 2.27899e-17)
(7.23028 -0.11823 -4.2562e-17)
(7.08745 0.0827235 1.23079e-16)
(7.29903 0.107647 5.38925e-17)
(7.12062 0.0444489 -3.75659e-17)
(7.26049 0.111363 8.90524e-17)
(6.96848 -0.00179294 -9.11758e-18)
(7.31377 0.241328 9.39823e-19)
(7.16739 -0.159159 5.80108e-17)
(7.77888 -0.260772 -5.49412e-18)
(7.83443 -0.0331662 0)
(7.08531 -0.195146 -3.69203e-17)
(7.4886 0.260983 -2.58554e-17)
(7.22339 -0.0669371 -7.14519e-17)
(7.1621 0.17983 -8.66332e-18)
(7.37265 0.0294784 5.15302e-17)
(7.30253 0.0661734 8.04664e-17)
(7.00324 0.00556333 -2.49175e-18)
(6.73156 0.137484 -1.00916e-17)
(7.87491 0.124826 2.88051e-17)
(7.96115 -0.0843651 1.76038e-17)
(6.57752 0.20577 0)
(6.93037 -0.0961954 1.73419e-17)
(7.47971 -0.0707865 2.56428e-17)
(7.02865 0.0498761 4.7271e-17)
(7.15929 -0.0298691 1.95277e-17)
(7.76298 -0.128317 -3.23647e-17)
(7.99793 -0.0521668 3.38353e-18)
(8.01611 -0.0838271 0)
(7.77538 -0.0885186 -6.24325e-17)
(7.30972 0.0971267 1.68468e-16)
(6.98546 0.148881 -6.07251e-16)
(7.72834 -0.163222 0)
(7.84267 -0.172435 0)
(7.82488 -0.151391 5.48553e-18)
(7.76379 -0.159507 0)
(7.26264 -0.0779967 0)
(7.15516 -0.0316289 -5.06285e-17)
(7.57828 -0.171225 1.31769e-17)
(7.84248 -0.103882 0)
(7.75481 -0.148991 0)
(7.6749 -0.112416 -7.39433e-18)
(4.83879 -0.194356 -3.08308e-17)
(4.6599 -0.0728924 5.87e-18)
(7.56388 -0.13044 0)
(7.37363 -0.152502 9.36902e-18)
(-0.985381 0.117619 -4.60828e-17)
(7.01948 -0.00385844 -1.42635e-16)
(6.8778 -0.0459326 7.13149e-17)
(-1.31785 -0.014482 0)
(-1.14495 0.109968 0)
(4.97517 -0.0802514 2.68948e-17)
(6.97899 0.0781185 -3.17288e-17)
(6.68982 -0.0653379 2.85116e-18)
(8.17145 0.0752461 -2.76482e-17)
(7.02544 0.107972 -2.26405e-17)
(7.01654 0.0925144 -6.89543e-19)
(7.02516 0.0635764 -1.89285e-17)
(6.98746 0.102175 2.85183e-17)
(6.99034 0.081039 1.99301e-17)
(8.27308 -0.0919506 8.03587e-17)
(7.00198 -0.125912 6.40176e-17)
(6.83365 -0.205526 -3.37582e-17)
(5.25228 0.0214768 -3.2149e-17)
(7.09279 0.0527502 2.58038e-17)
(7.05662 0.0714829 5.34933e-17)
(7.59315 0.138816 0)
(-1.22613 -0.102775 5.06724e-17)
(-1.44273 -0.00730929 0)
(7.70928 0.17149 5.29622e-19)
(8.0088 -0.0184462 0)
(7.66245 0.439728 -1.62407e-17)
(7.63079 0.261725 -1.46044e-16)
(7.00692 0.0612097 0)
(6.83778 0.0722006 4.821e-17)
(6.93645 0.0591888 7.04347e-17)
(7.31773 0.0867282 2.54968e-16)
(7.18318 -0.166317 -4.39223e-17)
(6.98772 -0.226731 -2.43759e-17)
(7.14465 -0.0301519 4.80865e-17)
(7.33114 0.0140597 -3.34934e-17)
(6.51298 -0.170418 -5.46806e-17)
(6.87155 0.0489616 -1.31908e-16)
(7.24427 0.185633 1.46295e-17)
(7.25691 -0.19444 -3.73588e-17)
(7.3324 -0.171601 -1.74024e-18)
(7.27647 -0.147568 -1.37601e-17)
(7.35071 -0.125576 9.20874e-18)
(7.52032 -0.13231 0)
(7.6114 0.0104129 -8.23936e-17)
(8.23511 -0.0465035 -3.0604e-17)
(6.95738 -0.000341457 4.26786e-17)
(7.48219 -0.0812849 -3.3701e-18)
(7.00227 0.0437731 -9.60884e-17)
(7.31506 0.045794 0)
(7.60022 -0.0205594 -6.06758e-18)
(7.4528 -0.126442 6.02152e-18)
(7.77085 0.146575 -8.32992e-18)
(6.98887 0.19073 -3.02983e-17)
(7.00407 0.0190029 0)
(7.00216 0.0371315 7.92109e-17)
(7.4998 -0.0865828 -1.68723e-17)
(7.3182 -0.0608186 1.56648e-17)
(6.90165 -0.10208 3.62573e-17)
(7.0298 -0.0906239 0)
(6.64024 -0.246996 0)
(7.8469 -0.11338 -2.20022e-17)
(7.66147 -0.131843 1.30496e-17)
(7.88989 0.0805134 -1.21199e-17)
(8.08529 -0.0763396 6.1097e-17)
(0.470242 -0.96197 -7.71674e-18)
(4.21368 0.125776 4.76613e-18)
(5.73335 2.45448 -3.93842e-18)
(6.11826 2.5236 0)
(3.67569 -1.14093 6.92627e-18)
(3.67827 -1.12754 6.92815e-18)
(6.50052 -1.11293 2.07314e-18)
(6.58552 0.991134 1.9869e-17)
(7.47283 -1.43169 7.67094e-20)
(4.62823 -0.746109 -1.8619e-17)
(6.52545 1.50886 1.01695e-18)
(6.84289 -1.18227 -3.99497e-18)
(4.0525 -0.443793 0)
(7.26917 -0.319822 9.6233e-19)
(4.20848 -0.0846256 -1.67452e-17)
(4.17539 -1.04375 -6.69882e-19)
(-1.7558 -1.00844 1.60896e-17)
(7.50528 -1.39229 9.45085e-20)
(4.77828 -0.048377 1.02793e-18)
(3.00803 -1.07011 1.70571e-18)
(4.14767 -0.238117 -1.50834e-19)
(4.17983 -1.11242 0)
(3.55757 -1.08034 2.33054e-18)
(4.33205 -1.11114 4.93838e-18)
(4.55315 -1.11104 1.77974e-18)
(4.74785 -1.13178 -1.21853e-18)
(6.09201 2.13749 -2.79272e-18)
(6.01072 2.2782 3.00407e-18)
(-0.311157 0.329567 0)
(3.6836 -1.06411 1.67193e-18)
(3.68704 -0.98174 -1.1021e-17)
(6.34776 -1.13494 5.50114e-18)
(5.94319 -1.15177 -4.73809e-18)
(6.62659 2.60899 7.24757e-20)
(5.15532 2.52975 3.27571e-19)
(3.15376 -1.18483 1.57621e-18)
(-1.74021 -0.726437 -8.61163e-18)
(5.69089 2.33529 -5.34038e-18)
(6.89444 -1.87262 0)
(6.97135 -1.79872 -5.98071e-22)
(6.78174 1.63811 2.11191e-18)
(6.70444 1.63644 0)
(6.34609 1.86255 -3.81843e-18)
(6.40114 1.91236 0)
(6.54171 -0.163283 0)
(6.60042 1.73039 -2.86865e-18)
(6.66392 1.7275 2.48498e-18)
(4.12324 -0.210923 2.41188e-17)
(4.10421 -0.322204 2.38783e-17)
(5.10361 2.38034 -5.53953e-18)
(5.7099 2.42967 0)
(5.69782 2.49519 0)
(5.9343 -1.15156 1.84761e-18)
(5.82308 -1.10622 3.95579e-18)
(4.54564 -0.502451 0)
(4.65311 -0.332359 0)
(3.09677 -1.11908 2.23191e-18)
(6.47802 -1.17627 1.28702e-17)
(6.89474 -1.17903 -4.17237e-18)
(6.71279 -1.14606 -1.04103e-17)
(3.48446 -1.62703 1.40801e-18)
(6.12781 2.04407 0)
(3.3198 -1.03556 -1.54621e-18)
(5.72668 2.51484 6.36633e-19)
(5.91006 2.01365 -5.81575e-19)
(3.72102 -0.913971 6.48562e-18)
(6.90553 -0.353621 0)
(2.91862 -1.11389 0)
(0.129427 0.17254 0)
(5.13825 -1.1331 9.89992e-19)
(5.09484 -1.12252 -5.26117e-19)
(3.04717 -1.11867 0)
(3.24748 -1.13284 -3.05016e-18)
(2.96819 -1.13039 1.81754e-18)
(4.38754 -0.307995 5.25428e-19)
(4.39097 -0.404125 -4.03859e-21)
(6.92729 -2.81318 -2.76455e-20)
(5.99952 2.13248 4.77412e-19)
(5.94862 2.22385 7.36794e-18)
(4.49044 -1.1218 2.78182e-18)
(5.9444 -1.06459 0)
(3.67101 -1.30549 -4.57036e-18)
(4.35061 0.124536 0)
(5.86631 2.20864 -7.94023e-18)
(5.82735 2.25617 0)
(5.83257 2.11542 0)
(7.0453 0.216689 -1.02637e-18)
(4.61428 -0.375842 -1.46263e-18)
(4.5704 -0.452712 -1.58767e-18)
(6.62636 0.400697 -8.03354e-17)
(6.73123 0.303776 -5.09931e-17)
(5.11374 0.264294 8.00872e-19)
(5.16572 0.305995 -9.84275e-19)
(5.21789 -1.11617 0)
(3.67203 -1.09518 1.38407e-19)
(6.10311 2.40685 0)
(6.19802 2.34296 0)
(6.14685 2.3207 0)
(6.16907 2.42289 0)
(3.70869 -0.792589 -3.08083e-18)
(2.74473 -1.12065 0)
(4.19778 0.0902651 6.79827e-18)
(4.17339 -0.0319744 -4.51362e-18)
(4.26016 0.0738658 -1.26044e-17)
(4.10838 -0.000952402 -3.73237e-18)
(6.28222 2.22126 9.04879e-19)
(6.22134 2.18798 5.85839e-18)
(5.53581 -1.1031 9.36969e-19)
(5.8007 2.39343 5.16451e-19)
(6.56307 1.39659 1.4767e-17)
(7.50987 -0.282189 0)
(6.3989 -1.12955 7.08003e-18)
(5.97202 -1.14373 1.90986e-18)
(6.3734 -1.14215 0)
(7.2263 -0.339363 -2.20667e-21)
(4.28945 -0.0523979 0)
(4.47748 0.042252 0)
(6.00418 -0.846432 0)
(-0.803797 0.367935 4.61955e-17)
(3.79857 -1.06534 4.70416e-20)
(3.71677 -2.23449 -5.22779e-19)
(5.09341 -1.12542 0)
(4.05289 -0.0820763 3.16778e-18)
(3.86043 -0.300207 6.31579e-18)
(5.74432 2.38325 -1.33034e-19)
(5.78068 2.37042 -2.10635e-20)
(5.75551 2.28228 1.81336e-19)
(6.28194 0.202293 -7.26737e-17)
(4.39184 -0.0723259 2.2754e-17)
(4.32913 -0.105848 1.65555e-18)
(4.34821 -0.135055 -2.71215e-17)
(4.42026 -0.0143983 -1.75316e-18)
(6.99212 0.141115 2.87516e-17)
(7.13146 -0.230908 -1.39215e-18)
(4.434 -0.0739375 -1.83842e-17)
(4.5248 -0.0684597 -4.52828e-18)
(4.48407 -0.134926 8.46415e-19)
(4.58978 0.124208 0)
(4.59471 0.0671739 2.04943e-17)
(3.69954 -0.767496 0)
(3.72858 -0.612393 -6.33771e-21)
(6.76676 -0.51887 5.23706e-18)
(6.7888 -0.337233 2.49744e-18)
(5.99864 2.33593 -7.68149e-19)
(6.06395 2.39755 8.05113e-19)
(5.71259 -0.878904 8.10851e-18)
(6.25836 2.34529 0)
(6.29102 2.28536 0)
(6.30215 2.4223 0)
(5.26271 -1.10882 4.41113e-18)
(5.72972 -1.10928 0)
(4.19842 0.269096 -3.66638e-18)
(4.84088 -1.11502 -4.56069e-18)
(4.41722 -1.07891 5.74689e-18)
(5.43784 -1.10297 0)
(5.25014 -1.10292 -1.10914e-18)
(5.42605 -1.0951 3.80146e-20)
(5.2589 -1.12086 0)
(6.75882 0.216078 0)
(4.4659 -1.13337 -7.29181e-20)
(4.75184 -1.1296 1.07937e-18)
(4.63396 -1.12727 -1.45917e-18)
(6.6012 -0.420085 -3.06692e-17)
(6.62895 -0.513413 4.1772e-17)
(6.66793 -0.357394 -4.87696e-17)
(4.39546 0.0824246 3.8116e-18)
(4.45153 0.0725131 -4.01175e-18)
(4.48553 0.123634 -2.14063e-18)
(4.38508 0.0469034 2.00973e-18)
(4.76842 -0.495741 -2.66871e-17)
(4.59614 -0.531853 9.37253e-19)
(4.66616 -0.570249 0)
(4.7339 -0.38762 1.61041e-17)
(6.83591 0.479506 2.44199e-17)
(2.94703 -2.26775 2.39315e-18)
(3.23231 -2.19412 9.60425e-19)
(3.74668 -1.83083 9.36597e-20)
(3.69915 -1.93517 -3.12918e-18)
(4.55407 0.161295 -3.47798e-18)
(4.65807 0.191239 3.64218e-18)
(4.57343 0.240202 0)
(4.68736 0.132546 0)
(4.59517 0.215105 7.3357e-18)
(4.75182 -0.317569 0)
(4.64601 -0.158534 0)
(4.58321 -0.279394 0)
(4.77169 -0.240324 0)
(6.96335 -1.66189 -2.50483e-20)
(6.96381 -1.71089 0)
(3.81958 -1.1274 1.40778e-18)
(4.06277 -1.11187 0)
(4.18559 -1.10321 8.44693e-20)
(3.71078 -1.1206 -3.94701e-18)
(5.16255 0.339572 0)
(3.52764 -1.10245 -7.78786e-18)
(3.24651 -1.07335 0)
(5.52574 0.199363 -4.83902e-19)
(5.31486 0.251225 0)
(4.37441 -0.315791 -1.95493e-17)
(4.50998 -0.272822 0)
(4.45851 -0.198258 0)
(4.47051 -0.345953 2.50195e-17)
(3.86365 -0.82452 3.29218e-17)
(3.78527 -0.959191 -1.11126e-17)
(6.94492 0.107382 -5.32339e-18)
(6.68721 -0.0951832 8.04274e-17)
(6.65723 -0.190139 0)
(6.61284 -0.159945 7.89567e-17)
(6.72227 -0.165818 0)
(3.89029 -0.67701 -1.44861e-17)
(3.9867 -0.57429 0)
(3.84075 -0.583541 0)
(4.73242 -1.1238 -2.19944e-17)
(4.93168 -0.786335 -9.81931e-18)
(4.75799 -0.848718 1.01691e-17)
(4.17501 -1.08584 1.00368e-18)
(4.08902 -1.12721 1.77114e-18)
(4.32751 -1.08975 -9.81838e-19)
(3.93877 -1.11224 -2.18098e-18)
(5.03009 -1.13235 -6.03429e-18)
(4.5849 -1.08322 -4.5669e-18)
(4.98819 -1.11174 1.29364e-18)
(4.60754 -1.10872 -3.20043e-18)
(4.19615 -0.73947 0)
(4.17689 -0.81071 0)
(4.07211 -0.697146 -1.61829e-19)
(5.06841 2.51914 1.72899e-19)
(7.42306 -0.170102 -1.91127e-17)
(7.24631 -0.197664 2.05795e-18)
(7.31975 -0.188324 1.19005e-17)
(7.34957 -0.172713 -7.5709e-18)
(5.05256 2.27888 -7.43128e-19)
(5.49366 -0.29801 4.41255e-17)
(5.75373 2.36117 -2.67708e-18)
(5.76426 2.42028 -1.25131e-18)
(5.83652 2.32062 2.22901e-18)
(3.78047 -1.14806 0)
(3.71801 -1.37321 0)
(3.89895 -1.2274 2.05961e-17)
(5.23078 -1.09218 3.27019e-18)
(4.58363 0.082957 0)
(4.57573 0.0656516 8.73921e-20)
(4.55852 0.0598712 0)
(4.58776 0.103651 -8.07219e-18)
(6.93111 0.365522 3.52052e-17)
(3.83586 -0.394233 1.78539e-18)
(3.73696 -0.534595 -3.61093e-18)
(3.78863 -0.414826 1.93098e-18)
(3.79389 -0.520652 0)
(7.98486 0.181264 -3.18886e-17)
(-1.06834 0.275058 6.02705e-17)
(7.70816 -0.214811 3.43562e-17)
(8.0234 -0.0340919 0)
(-1.09986 0.10158 -2.77803e-17)
(7.05895 0.250654 6.81778e-18)
(4.63308 0.0597174 -2.24576e-17)
(6.99695 0.0173129 6.81495e-17)
(7.00679 0.0893151 -4.22428e-17)
(7.00616 0.0682499 -8.3801e-17)
(7.9986 -0.152414 0)
(5.59128 -0.469136 -3.42774e-18)
(6.78767 0.221379 0)
(6.82979 0.183437 1.97314e-17)
(5.71462 -0.080401 0)
(6.41057 0.0951088 -8.38525e-17)
(6.31041 0.124729 4.5526e-17)
(6.59774 0.0184584 2.40412e-17)
(6.5313 0.0501651 0)
(5.88692 -0.782299 4.17478e-18)
(6.93172 0.141557 -5.313e-17)
(6.91054 0.169194 -5.62086e-17)
(5.63361 -0.31073 -2.73846e-17)
(6.9572 0.247194 2.54927e-17)
(6.94559 0.292075 1.55053e-17)
(-0.571452 0.0299025 1.35127e-17)
(7.00802 0.0622242 7.40771e-17)
(7.6167 0.311286 -1.44666e-17)
(-2.54344 -0.771321 -9.25964e-18)
(6.98666 0.122347 1.02504e-17)
(6.97223 0.190558 4.06933e-17)
(7.1594 0.248479 0)
(5.67197 -0.451331 -5.34073e-17)
(7.47801 -0.133974 8.33299e-17)
(5.70878 -0.625376 1.73916e-18)
(5.67438 -0.736134 -9.15721e-18)
(6.85561 0.774261 2.03357e-17)
(7.01025 0.09821 5.60746e-17)
(7.40615 -0.166933 -2.17579e-17)
(7.45429 -0.176486 -7.37506e-17)
(7.41034 -0.213997 2.4255e-17)
(7.68144 -0.13058 3.63849e-17)
(6.71957 -0.382731 5.2845e-18)
(6.71247 -0.472367 -7.25734e-18)
(7.20972 -0.169676 1.04865e-18)
(7.19909 -0.211723 8.76546e-18)
(7.03472 0.178894 6.67534e-18)
(6.52576 -0.315869 -5.53082e-17)
(6.8383 -0.377107 0)
(6.82426 -0.478728 0)
(6.8337 -0.131886 -1.06671e-17)
(6.70436 -0.121871 0)
(-2.48697 -0.619786 0)
(0.0421371 0.213883 6.80931e-18)
(7.63145 -0.100922 2.8053e-17)
(7.71436 -0.082653 5.14636e-18)
(7.20515 0.355578 1.38725e-19)
(7.08798 -0.196367 0)
(7.20142 -0.171256 0)
(6.74713 0.163489 -1.75432e-17)
(7.58813 -0.242331 0)
(7.00319 0.0568817 -3.37603e-17)
(6.99892 0.0706974 1.23835e-16)
(6.99751 0.151066 1.31144e-17)
(5.65817 -1.14155 6.39233e-18)
(5.94043 -1.15452 -5.19503e-18)
(5.71044 -1.14714 4.56256e-18)
(5.86013 -0.0642057 3.40482e-17)
(7.00806 0.126394 0)
(4.97188 -0.102177 -2.03369e-16)
(7.44099 -0.230674 0)
(6.51601 -0.0495702 -3.21516e-17)
(6.1994 -0.0739471 1.46819e-17)
(6.04095 -0.0711541 1.55093e-17)
(7.07908 0.288482 -1.16507e-18)
(1.54369 0.0602511 0)
(7.5141 -0.2412 6.75616e-18)
(7.48269 -0.221518 -3.23187e-17)
(5.09158 -0.300277 0)
(5.24748 -0.294212 0)
(3.79188 -0.371543 7.63628e-20)
(7.73935 0.212828 -6.9126e-18)
(7.22273 0.215439 -2.77236e-17)
(7.26679 -0.0151224 0)
(8.32148 -0.0219447 -8.14101e-17)
(7.1216 0.323578 0)
(7.09319 0.285191 1.51746e-18)
(6.95196 0.155738 -4.19346e-17)
(5.05863 -0.602268 0)
(8.08811 0.112681 -3.00981e-17)
(7.86451 0.190108 -6.4323e-17)
(6.12858 -0.0893492 4.23487e-17)
(5.98075 -0.0417011 -4.96968e-17)
(7.33066 0.0789038 4.80852e-18)
(6.20948 2.02648 2.37462e-18)
(6.25643 1.91526 -2.59468e-18)
(5.59792 -0.131397 -2.62797e-17)
(7.00032 0.017053 0)
(7.06833 -0.289271 -1.58853e-18)
(7.13837 -0.228028 -1.48682e-18)
(7.08746 -0.251726 0)
(8.07724 0.011114 9.76223e-18)
(7.99253 0.0647428 -1.95865e-17)
(4.61617 0.117335 0)
(4.59271 0.166305 1.54125e-17)
(6.25874 2.07781 4.38195e-18)
(6.35994 2.02421 -4.04548e-18)
(6.86413 0.0071322 1.34166e-16)
(6.66208 -0.00137368 4.84463e-17)
(-3.28904 -0.628533 1.59895e-18)
(5.13837 -0.0498545 -2.70821e-17)
(7.05379 -0.0135805 -7.09012e-17)
(6.97216 0.103149 -4.29601e-17)
(6.90518 0.117689 7.2162e-17)
(6.86087 0.143826 -5.8756e-17)
(7.00846 0.0451435 0)
(7.00165 0.0361277 -1.88683e-17)
(7.01753 -0.319803 1.5944e-18)
(7.0242 -0.27274 -5.93064e-18)
(7.08906 -0.236319 0)
(3.94714 -1.13575 -2.3922e-17)
(3.9315 -0.900129 -6.75609e-18)
(4.04616 -0.796891 0)
(6.90603 0.135453 -7.50226e-17)
(6.86912 0.192783 -4.15657e-17)
(6.89063 0.165687 5.2726e-17)
(6.84284 0.203785 6.80498e-17)
(7.73815 0.334316 7.76211e-17)
(7.70239 0.289891 -3.37788e-17)
(7.76178 0.22129 0)
(6.69544 -0.0826101 3.562e-17)
(3.67049 -1.36773 -3.98897e-18)
(6.68527 0.0513786 -2.41023e-17)
(6.64348 0.0910005 4.22205e-18)
(7.01469 0.0220273 1.05065e-16)
(7.33189 -0.110924 1.29021e-16)
(3.90632 -1.46137 0)
(3.76625 -1.56983 3.35563e-18)
(5.84609 -0.182003 -7.92285e-17)
(5.69682 -0.209667 3.29548e-17)
(7.4508 0.0821095 0)
(6.92015 -0.091252 6.91336e-17)
(7.5972 0.0621999 -4.25379e-17)
(7.41541 -0.17547 0)
(6.21405 -1.11922 3.79956e-18)
(6.2829 -1.14656 -4.29799e-18)
(5.34349 -0.126086 0)
(5.48158 -0.164313 -4.25174e-17)
(5.60529 -0.0991485 2.89078e-17)
(4.72762 0.0241477 0)
(4.82461 0.00202491 1.83635e-17)
(6.87605 0.222613 -1.79577e-17)
(6.86275 0.258127 -1.68941e-17)
(6.83665 0.267726 0)
(8.00056 -0.142735 -6.25348e-17)
(7.05632 0.00422801 0)
(6.97027 -0.0106262 -5.35347e-17)
(6.60795 -0.0507879 -1.4913e-16)
(6.47202 -0.1325 0)
(6.52409 -0.0573498 8.89921e-18)
(7.0893 0.219846 6.37766e-19)
(7.09015 0.253818 6.62987e-19)
(6.37156 -0.125734 0)
(6.34177 -0.0447222 -2.20312e-17)
(6.24071 -0.010567 -1.00673e-16)
(7.01347 0.0259594 0)
(7.56493 -0.223543 0)
(7.69193 -0.195584 0)
(7.70382 -0.178248 0)
(-1.49805 0.315569 -2.30843e-17)
(-0.283831 0.112875 -3.94393e-18)
(7.27625 -0.241203 0)
(7.20911 -0.285345 1.42593e-18)
(7.12145 -0.256817 -6.52254e-19)
(4.19508 -0.532271 5.20913e-18)
(4.0713 -0.628654 0)
(7.7063 -0.130538 -2.47896e-17)
(7.9566 0.0602024 4.70821e-17)
(7.69838 0.134831 0)
(8.60024 0.267532 4.97239e-19)
(8.55027 0.299951 0)
(6.33518 -0.207418 9.49253e-20)
(4.80852 -1.28838 4.70999e-21)
(6.66884 0.459259 -7.90899e-17)
(4.26298 0.335392 7.48e-19)
(6.5045 -0.114081 -2.61968e-20)
(5.51275 -0.0100936 4.1824e-18)
(3.85398 -0.34774 0)
(4.65095 2.4028 1.06758e-18)
(5.89017 -2.81559 0)
(5.91335 -2.88603 0)
(6.90944 -0.974473 0)
(6.10858 0.937429 0)
(6.12184 0.839061 2.64118e-20)
(6.05815 2.11489 0)
(6.04027 2.24534 -1.57863e-21)
(6.43739 -0.336355 0)
(7.43786 -0.228679 -1.12542e-19)
(7.02693 -2.05327 0)
(3.60934 -1.75725 7.71171e-19)
(5.08468 -0.150441 1.10977e-19)
(6.50447 -2.06885 7.72624e-20)
(6.5328 -2.11109 -9.06739e-20)
(6.3068 -1.07443 -8.16433e-20)
(6.32934 -1.08199 0)
(6.69683 -0.0567461 0)
(7.60181 0.354035 0)
(1.87281 -1.79775 2.51514e-17)
(5.05921 0.728676 -1.19089e-18)
(1.48236 -1.48719 -5.36621e-18)
(1.25798 -1.33078 0)
(5.45077 1.88577 1.16396e-19)
(7.02108 -0.0526846 0)
(7.00446 -0.0314529 0)
(5.93464 -0.233298 0)
(3.20499 -2.05758 0)
(7.07175 -0.198508 -1.73378e-21)
(3.80482 -0.338956 -1.63196e-18)
(6.74959 0.117637 -1.21385e-20)
(3.21722 -1.33534 -8.82348e-19)
(6.42044 -0.334388 -8.40358e-23)
(5.43629 0.137616 0)
(5.3678 0.174804 0)
(5.20578 1.84076 0)
(7.53012 -0.272871 -1.25497e-19)
(5.63544 -1.17099 4.4211e-19)
(2.90181 -2.79683 1.50181e-18)
(3.07361 -2.59809 4.58011e-20)
(6.71723 -0.0496393 0)
(7.96066 -0.724965 0)
(4.60882 2.39645 -2.78045e-18)
(4.62375 2.40309 0)
(6.33604 2.66663 2.21837e-19)
(6.85789 -0.657586 1.17905e-17)
(7.43908 -0.0582271 0)
(6.89697 0.00423668 1.28063e-20)
(6.85594 -0.729314 1.03951e-17)
(4.21091 2.21323 -5.75743e-20)
(6.89825 -2.01042 3.52209e-20)
(6.89605 -1.9697 -5.25862e-20)
(6.62383 -1.00845 4.08673e-19)
(6.63172 -1.00162 1.54774e-18)
(7.03732 -0.114331 -2.46553e-21)
(7.05326 -0.145108 -1.12842e-22)
(8.04715 -0.477018 4.35845e-19)
(6.13116 0.838424 0)
(6.12408 0.816877 -2.49362e-20)
(7.97621 0.602203 5.41581e-19)
(6.52309 -0.192245 2.31303e-20)
(3.5949 -1.2917 1.48643e-18)
(5.50653 -3.05045 -1.96731e-18)
(4.55915 2.34113 -1.37293e-19)
(6.63468 -2.2107 5.02261e-20)
(7.3745 -0.302971 0)
(6.05865 -2.44959 3.89473e-18)
(6.16983 0.816774 -4.6889e-18)
(6.58058 -1.54724 0)
(8.51855 -0.996087 6.76991e-18)
(8.30578 -0.167827 1.31817e-20)
(-0.17393 -0.711848 -2.20677e-18)
(5.09365 2.12338 2.54587e-18)
(5.0855 2.04527 -2.5032e-18)
(6.842 0.0899572 0)
(4.05809 -0.5122 -1.45106e-19)
(4.0665 -0.644829 -1.36993e-19)
(5.95209 1.93094 2.27276e-19)
(6.55331 -2.1965 7.40965e-20)
(5.82877 -0.0127826 -1.09938e-19)
(4.78538 0.381465 3.94395e-18)
(4.9422 0.296051 7.1449e-18)
(7.24594 -1.42383 5.60129e-20)
(6.42246 -0.248783 8.07417e-20)
(6.42756 -0.235887 -1.28584e-19)
(4.33007 -1.34868 -5.77909e-19)
(4.11357 -1.36476 -1.65263e-20)
(7.7606 -0.1262 1.02002e-19)
(7.75149 -0.0822186 6.08981e-20)
(7.15827 -1.66111 0)
(6.86162 -0.292106 -3.77843e-20)
(5.67648 0.0796735 5.60164e-19)
(5.70577 0.0364445 7.4806e-19)
(5.17687 1.52651 -8.64989e-20)
(6.8909 -0.204317 1.58662e-20)
(2.13321 -1.26528 -1.55351e-18)
(4.55395 2.2361 1.41829e-18)
(4.72338 2.19567 2.40305e-19)
(5.23872 -0.50946 -6.65287e-19)
(5.44318 -0.619328 -3.28625e-19)
(7.57108 -1.00848 0)
(6.67298 -0.321812 9.13605e-20)
(7.37814 0.0620938 0)
(7.30545 -0.00144096 3.56185e-20)
(6.57579 -0.295381 -1.26713e-19)
(4.36753 -1.15997 0)
(4.26561 -1.15505 0)
(6.48775 -0.22689 1.73394e-20)
(7.25462 -0.358386 -2.08582e-20)
(6.84611 -0.991024 0)
(6.21512 -0.222729 0)
(7.40495 -3.09305 0)
(5.05906 -1.31175 2.92977e-19)
(5.01248 -1.33828 4.98889e-19)
(5.38897 -0.309163 8.06007e-19)
(5.3899 -0.356172 -7.46135e-19)
(8.37239 -1.02019 -1.83507e-19)
(7.7059 -4.08278 4.34608e-19)
(7.65085 -2.52545 4.42816e-20)
(1.58173 -4.2616 3.98115e-18)
(7.56779 -3.36547 1.56134e-19)
(6.17401 0.515048 -4.8921e-20)
(6.00833 2.56213 6.26279e-19)
(7.30118 -0.85985 -6.88347e-20)
(7.36809 -0.841526 3.13651e-20)
(4.71362 2.31679 6.90747e-20)
(4.21353 -0.422078 5.40632e-19)
(3.94997 -2.47689 3.96849e-18)
(6.55694 -0.0950511 0)
(8.64127 -1.93881 1.03788e-18)
(7.05834 0.0555125 1.66178e-20)
(7.03338 -1.27311 0)
(6.67537 -0.270584 4.37044e-20)
(6.01964 1.81786 9.77014e-19)
(5.97558 1.75939 -1.9691e-18)
(7.73862 -0.65274 1.20912e-19)
(7.71374 -0.59061 -2.15699e-19)
(6.32762 -2.44356 -3.93401e-19)
(5.41663 -0.044249 -3.939e-19)
(5.89883 1.62336 -1.33629e-19)
(4.93765 2.07268 -1.96106e-20)
(6.84367 0.0547387 -4.24028e-21)
(6.33843 -0.233491 9.10243e-20)
(6.81487 -0.267409 0)
(3.56458 -2.53513 0)
(3.85757 -0.276859 0)
(7.22092 0.764848 1.47068e-20)
(7.50391 -0.9043 6.54239e-20)
(7.10892 -1.66535 -1.514e-20)
(7.01434 -1.70954 0)
(5.60457 -0.488715 -7.81517e-19)
(5.6532 -0.507052 0)
(1.40698 -0.96338 -2.79446e-18)
(1.66546 -0.984723 -2.9445e-18)
(6.83011 -1.21273 0)
(7.85758 -0.403627 0)
(7.83953 -0.367627 0)
(6.53964 -1.04337 0)
(6.40255 -1.06841 0)
(5.74498 1.37109 4.54e-20)
(5.16486 1.79418 4.65349e-20)
(5.1041 1.82365 -2.07396e-19)
(5.89154 1.80759 -1.52405e-19)
(7.26979 -1.53525 6.585e-20)
(7.18374 -1.6102 2.25938e-20)
(5.11791 1.5767 2.06956e-19)
(6.25239 -0.232808 0)
(6.31976 -0.2412 1.70365e-19)
(6.32613 -0.256225 9.10716e-20)
(6.91761 -0.0776623 -2.29329e-20)
(6.9735 -0.0435297 6.9556e-21)
(7.80114 -1.04105 1.11733e-18)
(7.84643 -1.04531 0)
(5.67899 2.2638 -2.78896e-21)
(7.07926 -1.19264 2.60934e-21)
(7.07098 -1.262 0)
(5.39034 -0.151021 -4.74223e-18)
(5.48699 -0.114899 5.34376e-18)
(5.3541 -0.290165 -2.48329e-18)
(6.07806 -1.04781 5.58238e-19)
(6.46366 -0.768878 0)
(6.58973 -1.15853 0)
(6.34351 -0.410507 2.28006e-19)
(6.28066 -2.03146 0)
(5.52587 -0.12821 -4.27481e-20)
(5.55876 -0.184166 5.374e-19)
(6.17665 -1.08716 2.41997e-18)
(7.25542 -0.863896 -7.53859e-20)
(6.07507 1.2682 -1.1234e-19)
(6.6117 0.364166 -2.87684e-20)
(7.82334 -0.881936 0)
(7.86993 -0.774587 0)
(6.48006 -0.47344 3.39861e-21)
(7.16841 -1.92541 8.7948e-20)
(5.22679 -1.33517 -1.04526e-19)
(6.40337 1.37543 7.87107e-19)
(7.33163 -0.00872503 0)
(7.37771 0.0228301 0)
(4.50745 -1.27639 3.8761e-19)
(4.78962 -1.24823 0)
(6.4933 -2.79783 -2.95537e-19)
(5.62826 -0.337448 0)
(5.23845 -0.460344 1.09632e-19)
(4.16403 -4.34625 0)
(6.06523 1.02105 1.10191e-19)
(4.69149 -1.38059 0)
(6.00949 1.3141 6.23351e-20)
(5.95743 1.3483 -1.15996e-19)
(5.83231 -2.9248 3.07817e-19)
(5.66322 -2.97683 0)
(7.46381 -1.1856 0)
(7.43368 -1.22326 0)
(7.38901 0.445106 0)
(6.02913 1.27904 -6.46583e-20)
(6.07807 1.14409 1.4377e-19)
(5.98467 1.22764 -7.98431e-20)
(5.99355 1.1219 6.78733e-20)
(6.0129 1.20038 9.58947e-22)
(7.09326 -0.130704 -1.36005e-20)
(5.94184 -0.251094 0)
(8.58457 -1.98102 4.23119e-19)
(5.41259 1.88587 1.11901e-19)
(5.5553 2.43753 -7.60035e-19)
(5.52353 2.50603 0)
(3.30001 -1.3883 -2.94342e-19)
(3.32177 -1.423 2.96701e-19)
(6.6452 -0.105798 -2.35983e-22)
(5.13862 0.1028 -1.10126e-20)
(7.43521 -1.13659 -5.55855e-18)
(7.16141 -1.15386 5.59281e-18)
(7.04474 -1.15643 3.88293e-19)
(6.42149 -0.207247 8.78842e-20)
(4.1534 0.329051 -1.13887e-18)
(6.10345 1.78547 -9.84798e-20)
(5.93847 1.12877 2.4961e-20)
(7.44874 -3.8235 -4.93652e-19)
(5.68659 0.0159508 0)
(5.64949 -0.704994 -4.84928e-19)
(6.06094 2.26419 3.6425e-19)
(6.05533 2.22965 -4.85456e-19)
(6.08946 2.15831 -8.95566e-20)
(6.72937 -1.93349 8.15392e-20)
(7.09807 -1.45967 0)
(7.4695 -3.5504 4.62852e-19)
(6.95046 -1.47431 -3.40474e-20)
(6.88379 -1.5329 6.32341e-20)
(7.25589 -0.0283255 1.80602e-20)
(5.93236 -1.08363 -5.94188e-21)
(5.69372 -1.13309 0)
(2.52477 -1.00391 1.8093e-18)
(6.90781 -2.92095 1.21434e-19)
(6.66751 -2.82307 -1.18673e-19)
(5.42242 -1.27233 4.16849e-19)
(7.88497 -1.31412 -2.88806e-20)
(3.05493 -2.42348 -1.11462e-18)
(3.15578 -2.48617 5.39295e-21)
(2.22741 -1.55264 7.30575e-18)
(5.7324 -1.11264 1.65222e-19)
(5.6494 -1.11428 0)
(5.85552 -1.08841 -1.98935e-19)
(5.11128 -0.437909 -5.5499e-18)
(5.66746 -0.114651 -1.87792e-19)
(5.68199 -0.0953287 9.48161e-19)
(6.59236 -1.66579 0)
(5.58117 -1.14709 4.0837e-19)
(7.66889 -0.980144 -4.8794e-20)
(7.73206 -0.935908 -5.68772e-20)
(6.63516 -0.863533 -1.20054e-19)
(7.06505 0.00687214 6.82387e-21)
(4.44665 2.04516 -1.26886e-18)
(4.93083 0.0205543 0)
(6.76044 -1.09568 0)
(6.35967 1.45587 6.45063e-18)
(6.81654 -2.03442 -3.7196e-21)
(5.01887 2.37777 2.98129e-18)
(4.85587 2.40612 -1.70746e-18)
(6.79052 -1.22287 0)
(6.7841 -1.28175 1.62328e-20)
(6.74234 -1.3098 -9.78653e-20)
(7.52873 -0.950694 4.76131e-20)
(2.74651 -0.860704 -2.38886e-18)
(6.45018 2.6426 -1.39739e-19)
(6.41838 2.71163 3.1623e-19)
(3.38659 -0.799155 -4.04053e-18)
(6.31242 2.678 9.28298e-19)
(2.49401 -1.06763 0)
(4.95216 2.40214 4.42927e-19)
(4.79031 2.39035 -4.93526e-19)
(6.36348 -1.04131 -2.71294e-19)
(5.83764 -0.757879 -6.00491e-19)
(4.68086 2.14668 0)
(4.59321 2.16765 -5.55075e-19)
(4.65827 0.0564344 -4.91305e-19)
(1.58914 -1.51211 1.86122e-18)
(7.29916 -0.076711 9.88485e-20)
(5.42489 0.0532506 -6.73889e-21)
(2.90329 -1.29322 6.60603e-19)
(2.60553 -1.31635 -1.72617e-18)
(5.61579 2.01644 -1.02098e-19)
(6.57258 -0.929663 0)
(4.60992 -0.206197 -6.46032e-20)
(4.63391 -0.281554 0)
(4.55002 -0.248494 5.98469e-20)
(5.6594 0.103047 -7.00155e-19)
(6.64513 -1.66167 -1.25807e-19)
(6.71548 -1.62809 0)
(6.84065 -1.6108 1.98231e-20)
(6.84946 -1.54802 -6.40775e-20)
(7.18559 -1.5619 1.40689e-20)
(7.23124 -1.5192 -7.44593e-20)
(7.64652 -0.956174 -4.75904e-20)
(7.59358 -0.968315 4.84497e-20)
(7.65848 -0.877934 0)
(5.28312 0.0217446 -1.8507e-21)
(5.18202 0.0593129 -8.73337e-19)
(4.26462 0.385774 1.93165e-18)
(6.85986 -1.371 1.50561e-20)
(6.84883 -1.4345 0)
(6.08309 -1.08987 1.47718e-19)
(6.25033 -1.06754 -1.42594e-19)
(4.37371 -1.19478 -2.78374e-18)
(4.47762 -1.20437 1.38038e-18)
(2.11589 -1.3424 -1.09332e-18)
(1.86141 -1.35387 -1.1554e-18)
(7.17729 0.0586177 5.71884e-20)
(3.07197 -1.07994 -2.14836e-18)