/*--------------------------------*- C++ -*----------------------------------*\
  =========                 |
  \\      /  F ield         | OpenFOAM: The Open Source CFD Toolbox
   \\    /   O peration     | Website:  https://openfoam.org
    \\  /    A nd           | Version:  6
     \\/     M anipulation  |
\*---------------------------------------------------------------------------*/
FoamFile
{
    version     2.0;
    format      ascii;
    class       volScalarField;
    location    "500";
    object      nuTilda;
}
// * * * * * * * * * * * * * * * * * * * * * * * * * * * * * * * * * * * * * //

dimensions      [0 2 -1 0 0 0 0];

internalField   nonuniform List<scalar> 
29884
(
0.276175
0.225672
0.122069
0.155994
0.156359
0.129642
0.193809
0.263736
0.213891
0.141145
0.153478
0.141699
0.153028
0.287563
0.280012
0.192055
0.287148
0.26675
0.280151
0.172866
0.278511
0.118573
0.142527
0.140649
0.144305
0.155013
0.193841
0.219272
0.150217
0.253672
0.148648
0.162916
0.195367
0.185288
0.143759
0.147364
0.249381
0.16666
0.179315
0.187673
0.231573
0.184847
0.176366
0.200842
0.183854
0.166662
0.175493
0.176404
0.136619
0.170891
0.167679
0.174256
0.192944
0.274773
0.263137
0.267329
0.18747
0.284682
0.262652
0.26701
0.198902
0.190777
0.135298
0.171039
0.166641
0.172813
0.280296
0.204022
0.302396
0.211417
0.14125
0.1496
0.143863
0.109379
0.317873
0.281503
0.234371
0.231456
0.226154
0.211528
0.180412
0.197786
0.114881
0.142352
0.121341
0.0971303
0.148757
0.156366
0.138887
0.0718498
0.144886
0.156678
0.10046
0.0634515
0.151827
0.000509479
0.139848
0.139922
0.149658
0.0660236
0.139792
0.139261
0.169416
0.176906
0.153019
0.196395
0.0779237
0.0763932
0.153884
0.138962
0.16273
0.000171211
0.135444
0.119793
0.141084
0.142103
0.149656
0.110759
0.147878
0.137075
0.13977
0.141191
0.161459
0.140136
0.135888
0.261772
0.224678
0.202792
0.301144
0.147771
0.143121
0.147367
0.254594
0.23773
0.131301
0.144001
0.165769
0.151717
0.163484
0.163608
0.155195
0.162109
0.173289
0.157151
0.170752
0.173841
0.160306
0.165497
0.178594
0.173896
0.171527
0.0946367
0.0829759
0.1831
0.248469
0.215023
0.198541
0.174903
0.22899
0.200877
0.188874
0.156208
0.154397
0.172988
0.000279788
0.000275718
0.205014
0.160487
0.139585
0.139342
0.212195
0.139295
0.139119
0.117472
0.12038
0.151916
0.14413
0.189064
0.142664
0.15606
0.145745
0.1291
0.131319
0.135322
0.118619
0.132266
0.139611
0.139245
0.155523
0.15039
0.15588
0.141651
0.136838
0.143497
0.146307
0.146791
0.141256
0.146812
0.151868
0.149785
0.218059
0.177443
0.153703
0.142333
0.150056
0.136404
0.144339
0.128756
0.140002
0.184654
0.174003
0.215049
0.218693
0.195176
0.257905
0.0692218
0.100445
0.0650656
0.112542
0.0392338
0.0372691
0.0870763
0.137538
0.119955
0.0853152
0.0349217
0.0686842
0.0540892
0.00986652
0.0789882
0.0689971
0.0649549
0.0782659
0.0756867
0.0789839
0.077361
0.0755651
0.138103
0.138329
0.0429659
0.0564613
0.000884896
0.0695497
0.0584441
0.0713151
0.123725
0.0656589
0.0658756
0.105226
0.0901172
0.0785685
0.0771041
0.114612
0.111287
0.0375534
0.0374478
0.0444801
0.041852
0.0956502
0.09655
0.0997746
0.10244
0.0438619
0.00107674
0.0815979
0.0589358
0.0837408
0.123093
0.122736
0.0590294
0.0859492
0.0874779
0.0473207
0.0533143
0.0487432
0.0766035
0.0713529
0.0542303
0.0576016
0.0511414
0.137139
0.0747701
0.129526
0.0892992
0.138357
0.116885
0.11665
0.064712
0.000224923
0.137868
0.0485746
0.07601
0.0773517
0.0478748
0.0771911
0.0774016
0.108362
0.075608
0.0750346
0.0618684
0.0918398
0.0689726
0.0707507
0.0690949
0.0535243
0.0594578
0.0751794
0.131766
0.111109
0.112069
0.11281
0.110227
0.0421961
0.0367172
0.038934
0.0806393
0.0785083
0.0716497
0.0822833
0.0832979
0.0848764
0.0635933
0.0583178
0.0584907
0.0847629
0.0882948
0.0409184
0.0421675
0.0442294
0.0389663
0.111233
0.112845
0.112965
0.111351
0.0683319
0.0641386
0.137744
0.100277
0.0477699
0.0461061
0.0821777
0.121605
0.0424441
0.111665
0.135459
0.0464804
0.0504167
0.0487414
0.0481461
0.0720575
0.0712684
0.0651718
0.0858817
0.086845
0.0843908
0.0624527
0.0569791
0.0540738
0.0552203
0.0575575
0.0632034
0.0736009
0.132821
0.121527
0.109882
0.110096
0.120538
0.133114
0.000456908
0.0404292
0.0819851
0.0799044
0.136851
0.144279
0.129234
0.0996582
0.0948993
0.0855726
0.079022
0.0821398
0.077763
0.117275
0.12692
0.122675
0.131656
0.0668677
0.0735129
0.0703538
0.0699383
0.0889647
0.0851923
0.0834748
0.0910933
0.0771434
0.0796681
0.0797618
0.0730434
0.0714907
0.0697509
0.0627613
0.0831011
0.0707171
0.0922578
0.0846913
0.0880634
0.0896581
0.0371098
0.13731
0.138558
0.139505
0.138763
0.0612005
0.0660363
0.0476495
0.046916
0.0449225
0.0595012
0.10086
0.0457577
0.0546343
0.061394
0.0370127
0.0533774
0.0567697
0.0505348
0.0716585
0.0793308
0.0737403
0.0762439
0.0501472
0.0553266
0.053191
0.0522005
0.130125
0.0641154
0.0617308
0.0663366
0.0601415
0.0762964
0.0795453
0.0654617
0.0678045
0.0673059
0.06585
0.151463
0.150141
0.135468
0.0838392
0.0808537
0.0833052
0.0804512
0.122274
0.137901
0.0751407
0.0848437
0.130441
0.145292
0.139409
0.130682
0.138064
0.00563626
0.124368
0.125789
0.0744991
0.068439
0.0701883
0.0726189
0.0665686
0.0814634
0.0904275
0.0864434
0.0859269
0.137974
0.137785
0.138034
0.139713
0.139655
0.165709
0.151158
0.157575
0.158901
0.140692
0.144685
0.142591
0.142537
0.0572308
0.0542113
0.0526382
0.058093
0.103822
0.102605
0.106404
0.044945
0.042211
0.0422204
0.0446445
0.13703
0.134777
0.136291
0.000869569
0.00421594
0.13874
0.0104057
0.119979
0.139545
0.138737
0.00130181
0.00210538
0.139071
0.139082
0.139262
0.138964
0.0879773
0.138601
0.121407
0.000326701
0.000387694
0.137358
0.0613837
0.229784
0.13939
0.256255
0.126529
0.140632
0.138815
0.000730316
0.141347
0.134182
0.140285
0.137849
0.0818373
0.121465
0.137432
0.122439
0.134354
0.144444
0.129693
0.124455
0.170295
0.210879
0.240862
0.107117
0.106766
0.139149
0.139118
0.139793
0.139668
0.130245
0.00792669
0.128501
0.121749
0.105279
0.139236
0.117047
0.139191
0.139196
0.139157
0.0026406
0.138468
0.138685
0.0830467
0.084164
0.0845198
0.122954
0.2439
0.209386
0.125925
0.121725
0.126754
0.101874
0.107179
0.127806
0.128529
0.184347
0.204834
0.128664
0.252311
0.138288
0.138366
0.253265
0.20699
0.000842788
0.12598
0.26171
0.096038
0.141808
0.142983
0.000349116
0.0759795
0.069626
0.137531
0.139652
0.139456
0.113074
0.121292
0.131432
0.129722
0.040051
0.0399514
0.144159
0.141601
0.145125
0.139595
0.139329
0.00118111
0.139034
0.137408
0.13613
0.13786
0.138136
0.138358
0.183999
0.133485
0.13639
0.130287
0.132878
0.160445
0.166235
0.199397
0.177022
0.12124
0.137597
0.133296
0.14139
0.130558
0.124835
0.145701
0.159828
0.149988
0.14663
0.123491
0.119589
0.0564397
0.0519556
0.048077
0.0388586
0.139038
0.140747
0.142213
0.253535
0.194565
0.0869831
0.0933288
0.200663
0.171833
0.196732
0.145577
0.15933
0.153894
0.164615
0.234696
0.189085
0.181639
0.0853301
0.0835699
0.138786
0.13859
0.139595
0.138328
0.156958
0.111419
0.114795
0.118506
0.13761
0.138219
0.137598
0.137681
0.137274
0.139714
0.162191
0.153642
0.132965
0.139548
0.142447
0.14511
0.135642
0.136232
0.21258
0.26821
0.238135
0.10927
0.113699
0.116147
0.00593642
0.0064355
0.136282
0.133698
0.065146
0.0609846
0.165892
0.168738
0.162005
0.0490158
0.0461374
0.0898699
0.0890107
0.037971
0.0498949
0.0745331
0.123909
0.121568
0.124824
0.0290171
0.106724
0.00570329
0.0681541
0.0230941
0.0593441
0.0344788
0.0207895
0.106834
0.0612578
0.00734883
0.0214117
0.0223967
0.0903795
0.0904205
0.122582
0.108395
0.108282
0.124401
0.0887488
0.0871634
0.0416895
0.12468
0.124274
0.0831384
0.0952202
0.0942713
0.106347
0.101238
0.101682
0.0507119
0.122382
0.122742
0.0313657
0.00277017
0.0461009
0.0485539
0.0326827
0.0892632
0.0941306
0.028254
0.0795415
0.0265317
0.0801052
0.0751217
0.104973
0.0129432
0.102424
0.102011
0.109849
0.0911084
0.0944159
0.059549
0.10511
0.0885488
0.0934307
0.103608
0.0477367
0.10574
0.0235272
0.0286057
0.105888
0.0968614
0.0623227
0.0655175
0.0450192
0.0713111
0.0396876
0.0590743
0.0611868
0.0918965
0.00161651
0.0440345
0.0694445
0.119052
0.074699
0.0731686
0.124468
0.0754193
0.0754023
0.0718156
0.00156268
0.109993
0.0623146
0.0636264
0.0220189
0.115607
0.114922
0.0404415
0.0420559
0.0493265
0.0501397
0.0624867
0.101679
0.0653535
0.0746266
0.0717643
0.104218
0.0788199
0.00836506
0.111091
0.111552
0.0339853
0.0901093
0.0933358
0.0290872
0.00158538
0.0693181
0.0594142
0.102049
0.101487
0.0574304
0.051887
0.0883678
0.089374
0.0649342
0.0160258
0.0839038
0.0666927
0.050155
0.0436562
0.0935182
0.0615583
0.0026331
0.0438792
0.0873522
0.0188538
0.0186154
0.0953047
0.0952622
0.118988
0.08929
0.122846
0.014347
0.0870342
0.0848288
0.121296
0.0920646
0.0633154
0.100544
0.0804175
0.0764662
0.120704
0.00675275
0.0191734
0.0502676
0.105439
0.0692792
0.0704587
0.0762119
0.0972996
0.123267
0.0971734
0.0964581
0.0719561
0.122004
0.115716
0.11347
0.0867848
0.0820165
0.068021
0.0360182
0.0346109
0.0339414
0.0961731
0.0671067
0.0326357
0.0689742
0.0671099
0.104788
0.0811816
0.0655051
0.0348853
0.0955592
0.0968901
0.0735462
0.136343
0.107899
0.0896178
0.0903327
0.0690398
0.0834853
0.0880154
0.113656
0.100417
0.124155
0.124418
0.0612192
0.104097
0.0445648
0.0807913
0.0930623
0.110628
0.111978
0.0598054
0.0910613
0.090424
0.0585644
0.135382
0.0863086
0.043942
0.0429025
0.0849233
0.118349
0.11675
0.0825545
0.0770741
0.0753186
0.0459877
0.0632511
0.0575637
0.0161443
0.0917324
0.092179
0.0934864
0.122501
0.122879
0.122017
0.121609
0.0923209
0.0913247
0.0320958
0.0626946
0.0630108
0.0620715
0.0865079
0.116111
0.0246848
0.0912228
0.0888409
0.0828502
0.0342145
0.108942
0.106976
0.0837152
0.0848523
0.0588818
0.0647262
0.113017
0.0865968
0.0462947
0.0861536
0.0865055
0.0875034
0.0954751
0.0473936
0.00488997
0.126282
0.124534
0.108272
0.118383
0.119937
0.080501
0.0816088
0.11818
0.103182
0.0209406
0.02639
0.124922
0.0784255
0.0721336
0.101725
0.0643666
0.060434
0.105805
0.073808
0.0697451
0.0902227
0.090432
0.0899021
0.0377004
0.0366796
0.106343
0.106677
0.0157621
0.0305807
0.0236458
0.0968253
0.0442887
0.0649256
0.0658235
0.0150686
0.0110978
0.105011
0.104917
0.10604
0.0763471
0.0720791
0.0948717
0.089342
0.117354
0.0846904
0.0835546
0.0877688
0.0303516
0.0315212
0.107585
0.107789
0.0227043
0.0214674
0.11334
0.112918
0.102877
0.102835
0.103962
0.0832642
0.081381
0.0059403
0.0976921
0.0566403
0.105625
0.0323021
0.0318845
0.0169939
0.0582542
0.0710052
0.0645654
0.124013
0.0349966
0.0948336
0.0961276
0.115545
0.109615
0.0694301
0.0564501
0.0577061
0.0677151
0.0703389
0.100047
0.0994721
0.0981461
0.0817431
0.088053
0.0682354
0.0324051
0.0421154
0.105511
0.0558004
0.0569025
0.0905522
0.0918514
0.0895808
0.0787486
0.0808924
0.0786105
0.0770244
0.1101
0.110223
0.109291
0.111285
0.112131
0.0838894
0.115886
0.0131731
0.0510272
0.0576046
0.0379775
0.0388691
0.0837049
0.0902526
0.0904296
0.0945089
0.0988077
0.0985963
0.0993546
0.100486
0.0982474
0.0835523
0.0805213
0.0336785
0.0608671
0.0441943
0.113348
0.114174
0.112794
0.00650989
0.11073
0.10603
0.103385
0.115419
0.114362
0.115567
0.106303
0.107536
0.0536232
0.0572146
0.0564666
0.0541956
0.0567736
0.0525382
0.072032
0.0942202
0.0936305
0.0935559
0.100721
0.0872603
0.0297791
0.0526086
0.0478683
0.0519729
0.049909
0.042924
0.105711
0.0951448
0.0956149
0.0729466
0.107028
0.104109
0.0947464
0.0960638
0.0818138
0.0791221
0.0818021
0.0752116
0.0723098
0.0775925
0.0838788
0.0670859
0.12224
0.122438
0.104896
0.0430752
0.123897
0.124159
0.123586
0.0613963
0.000949764
0.0973757
0.0808978
0.078701
0.0118275
0.000383258
0.101973
0.0911041
0.107665
0.087598
0.0889234
0.0764228
0.092385
0.0779942
0.112463
0.017177
0.0748647
0.074564
0.0772806
0.0540237
0.100656
0.0992457
0.101708
0.107992
0.108477
0.000640352
0.081316
0.0802292
0.100514
0.103193
0.0985222
0.00102686
0.000774896
0.091242
0.0418545
0.0361346
0.078135
0.0812617
0.0803187
0.0790615
0.0865007
0.0518253
0.0500771
0.101971
0.000577349
0.1218
0.122006
0.0787535
0.0775386
0.103377
0.0230672
0.112435
0.110618
0.0975876
0.0979035
0.0428976
0.0845293
0.0852323
0.0852369
0.102909
0.103118
0.12203
0.0862921
0.0966895
0.052953
0.00193388
0.0433104
0.108535
0.000538833
0.0613464
0.091356
0.0884672
0.0174
0.0777856
0.0760918
0.0942694
0.095156
0.0864908
0.0823074
0.057504
0.0583091
0.0547811
0.0758917
0.0770876
0.0754467
0.12471
0.124969
0.000929502
0.0239278
0.000476535
0.0976455
0.0154492
0.136149
0.136339
0.136459
0.136135
0.109296
0.0894905
0.0898239
0.137935
0.138262
0.0972951
0.0770888
0.0755347
0.0753017
0.0736888
0.0963259
0.116692
0.118645
0.0927083
0.088671
0.0811962
0.0765186
0.077811
0.000505866
0.057217
0.0579547
0.0592181
0.0560899
0.125005
0.125035
0.0325545
0.092576
0.0941897
0.124602
0.0910111
0.0924592
0.0880043
0.0632576
0.0604615
0.0665003
0.0670109
0.0659451
0.128225
0.0979552
0.0652282
0.0641958
0.100631
0.102192
0.0915031
0.0915337
0.0923196
0.090751
0.123212
0.123218
0.0958185
0.0947105
0.095783
0.0941934
0.0978818
0.0955515
0.000297458
0.0745777
0.075344
0.0415831
0.0373635
0.000414163
0.000810259
0.000802476
0.0396967
0.039132
0.0266262
0.0271499
0.0921628
0.0847476
0.0857048
0.103576
0.0390083
0.0414411
0.0401484
0.0447276
0.0924212
0.0916454
0.0936049
0.0910924
0.000417976
0.000725023
0.0010134
0.00164612
0.00895964
0.0248616
0.0581552
0.0565626
0.000921675
0.0783767
0.0257744
0.0911103
0.0908345
0.0935653
0.0901753
0.0908622
0.0897868
0.105479
0.106998
0.104336
0.102476
0.122288
0.0875559
0.0905248
0.0858261
0.0863088
0.087433
0.0836483
0.116511
0.104712
0.109805
0.093465
0.0944412
0.0945216
0.122799
0.121483
0.121581
0.120821
0.0664253
0.0706831
0.107409
0.120412
0.119729
0.120414
0.000386744
0.000652749
0.0884018
0.089255
0.0887162
0.0888986
0.0624375
0.116962
0.11735
0.116005
0.0907857
0.0922086
0.0926024
0.0902536
0.102359
0.103503
0.10055
0.142865
0.0686029
0.10107
0.100984
0.100038
0.102072
0.0781397
0.0841952
0.104134
0.105113
0.109341
0.108175
0.044777
0.128539
0.056379
0.0528814
0.106714
0.000341088
0.0916017
0.104617
0.110783
0.111381
0.110358
0.0819936
0.0830325
0.0154148
0.0749774
0.0731492
0.0780644
0.0713766
0.0741378
0.0676158
0.0810495
0.0848993
0.084192
0.0113806
0.0117021
0.0801301
0.0811743
0.112688
0.112187
0.113834
0.000316965
0.0568268
0.000796719
0.0999781
0.0927785
0.0898131
0.0919525
0.0899704
0.00194456
0.0788281
0.0808328
0.07961
0.0936646
0.0849474
0.0887694
0.0884768
0.097076
0.0958463
0.0949331
0.0978075
0.0426064
0.0395574
0.0415846
0.0402535
0.0849934
0.0819315
0.0857974
0.0857848
0.00126388
0.0125127
0.0887842
0.0891655
0.088355
0.0895105
0.0955919
0.0961264
0.0968384
0.0490067
0.0934579
0.0926936
0.096031
0.103729
0.102849
0.103133
0.0941394
0.0962269
0.0947811
0.0972921
0.098594
0.0781213
0.0753119
0.0751309
0.0781293
0.102936
0.104833
0.104083
0.103552
0.0720124
0.0699695
0.0751792
0.0847593
0.0819473
0.107609
0.107547
0.106813
0.0897509
0.0858872
0.0686747
0.0702119
0.120863
0.119238
0.119554
0.120639
0.0804257
0.0768427
0.0780161
0.0806721
0.0820841
0.0677855
0.064953
0.0636026
0.0438664
0.0908609
0.0900731
0.10811
0.0796353
0.0807566
0.0669066
0.0849433
0.087007
0.0867682
0.0850032
0.00139432
0.0931224
0.0950758
0.0938137
0.0944286
0.137122
0.137254
0.0897497
0.0874935
0.0885329
0.0887282
0.0943646
0.0946569
0.0920238
0.0588906
0.0628892
0.0582709
0.0785693
0.0800442
0.0784362
0.080284
0.0866393
0.114209
0.0912054
0.0781445
0.0768122
0.078657
0.0761331
0.0134496
0.112487
0.0131597
0.0130514
0.0919763
0.0913935
0.0913663
0.091941
0.0619832
0.0808311
0.0799818
0.105318
0.104947
0.105038
0.0997539
0.0846076
0.103896
0.105085
0.103171
0.0832031
0.0774328
0.0804188
0.0802536
0.0619553
0.124588
0.12454
0.0310167
0.0358387
0.0859959
0.0846857
0.0847429
0.00129541
0.0844098
0.110712
0.0725978
0.0720266
0.0740264
0.10288
0.0673304
0.0640509
0.0688533
0.111069
0.108416
0.109857
0.07407
0.0735978
0.128735
0.129752
0.0759128
0.0771223
0.079794
0.0987015
0.0948868
0.0900598
0.0338067
0.0392848
0.0367522
0.0307798
0.0301588
0.0118165
0.00979684
0.0151556
0.0885565
0.0943746
0.0956036
0.0968162
0.0965507
0.0982514
0.105164
0.104371
0.106481
0.106042
0.0918548
0.0922278
0.0717105
0.0738425
0.10385
0.118851
0.095915
0.0967372
0.0825189
0.0849317
0.0809633
0.0842673
0.086248
0.0852288
0.0229552
0.0274934
0.10144
0.099666
0.100249
0.100961
0.0721188
0.0693938
0.0699801
0.0711135
0.0446418
0.0439786
0.0458795
0.0425663
0.00100176
0.0748092
0.075059
0.0764484
0.0724976
0.0682451
0.0632397
0.0599587
0.108616
0.107715
0.108692
0.0751868
0.0814856
0.106359
0.106632
0.107273
0.106008
0.0596649
0.091355
0.0902629
0.0697695
0.068879
0.0702144
0.0683975
0.110352
0.1112
0.10928
0.0194811
0.0208344
0.016955
0.0818237
0.0834958
0.0792942
0.060916
0.0580294
0.0740873
0.0720121
0.0907506
0.0920285
0.0919152
0.097335
0.0869366
0.0900236
0.0897232
0.078058
0.0744826
0.0710693
0.0724347
0.0732424
0.111473
0.109609
0.109727
0.111245
0.120516
0.0913208
0.0925723
0.0903496
0.0938483
0.105353
0.0914699
0.0910968
0.0922121
0.090451
0.0897742
0.0907813
0.0912878
0.0894061
0.0344528
0.0789667
0.0781059
0.107368
0.108091
0.000794384
0.0195656
0.0695363
0.0689638
0.0989115
0.100058
0.105759
0.10487
0.107203
0.100633
0.0982827
0.00971017
0.0120619
0.0910105
0.088882
0.0903165
0.0896781
0.12397
0.0880414
0.0871707
0.0875579
0.0140602
0.0880832
0.0869529
0.0888112
0.0860639
0.0716955
0.0739929
0.0719416
0.0736241
0.083043
0.0826839
0.0820148
0.121722
0.054582
0.052929
0.0521263
0.0552102
0.0319558
0.0336941
0.105693
0.104783
0.105133
0.104971
0.073883
0.076968
0.0759969
0.074761
0.120385
0.121292
0.0947515
0.0963257
0.0960834
0.0949442
0.0649256
0.0733081
0.073002
0.0722494
0.035468
0.0294966
0.0712984
0.0726537
0.122872
0.122398
0.122817
0.0980418
0.0973347
0.0969666
0.0534086
0.0503664
0.0526585
0.0920889
0.0923399
0.0931698
0.0912578
0.0345561
0.0668389
0.0667525
0.0689136
0.06463
0.0045276
0.0545194
0.0704237
0.0748802
0.0988412
0.100236
0.100132
0.0988606
0.128456
0.0885042
0.0878074
0.0877733
0.0884665
0.101153
0.102487
0.10125
0.0619086
0.0908864
0.0902982
0.0910049
0.0983499
0.100287
0.0679721
0.0735016
0.0713064
0.0957012
0.0942897
0.0970285
0.113364
0.0366909
0.122072
0.0504444
0.0463522
0.0877501
0.0869966
0.090496
0.0291761
0.0256548
0.0313264
0.101317
0.0999386
0.101728
0.0992658
0.0529072
0.0521705
0.086477
0.0840388
0.0846789
0.0859677
0.0911506
0.0908091
0.0435222
0.0454875
0.0898585
0.0880058
0.0898641
0.0877486
0.124248
0.124678
0.0658572
0.0902941
0.0903467
0.0902116
0.0716669
0.072645
0.0713753
0.0292432
0.07171
0.0716876
0.0744761
0.0689884
0.070076
0.0724836
0.071201
0.0714159
0.0833699
0.0802718
0.0818169
0.107112
0.0963495
0.105637
0.100108
0.0424005
0.0786495
0.0777023
0.114348
0.115949
0.0822163
0.0804597
0.0800369
0.082456
0.090538
0.0898298
0.120681
0.118808
0.0643716
0.0930056
0.0936908
0.0943463
0.0563451
0.0518235
0.0552357
0.0522593
0.0386973
0.0450759
0.0892204
0.0907814
0.0885426
0.0633883
0.0569464
0.0610766
0.0596976
0.0922651
0.090794
0.108334
0.0979145
0.0840963
0.0882948
0.0867581
0.085228
0.102743
0.0449867
0.0468286
0.049195
0.0431568
0.107606
0.105748
0.108543
0.0338392
0.0349841
0.0603424
0.061314
0.0591939
0.0624103
0.0733337
0.0764392
0.0579058
0.059936
0.0949952
0.0647452
0.0888557
0.0875872
0.081271
0.00754345
0.112525
0.111778
0.112382
0.0798708
0.0402944
0.0612363
0.0937007
0.0879701
0.0881301
0.0962165
0.0773782
0.0782503
0.0772768
0.0530487
0.0545189
0.000258754
0.0793185
0.0679066
0.115016
0.113008
0.113652
0.114419
0.10168
0.103272
0.10282
0.102149
0.102332
0.103371
0.101586
0.103969
0.065396
0.0665515
0.067696
0.0641718
0.107291
0.106416
0.107306
0.106297
0.0774063
0.0786143
0.0747114
0.0484728
0.0351656
0.0704624
0.100672
0.0974787
0.123367
0.122188
0.055137
0.0272278
0.0933533
0.0939746
0.0943713
0.0551794
0.0661393
0.064844
0.0634987
0.0672633
0.106656
0.10601
0.104614
0.105191
0.105468
0.0480862
0.0447539
0.0469763
0.0456395
0.0869447
0.0865874
0.0872541
0.0862325
0.0744288
0.0728308
0.0732607
0.0739911
0.11038
0.110641
0.110887
0.110067
0.0544958
0.0517948
0.053599
0.0525605
0.0676837
0.0665092
0.0895146
0.0862364
0.086429
0.0884756
0.114708
0.117478
0.115937
0.121599
0.103078
0.101204
0.101578
0.0849564
0.0807501
0.0841037
0.0800982
0.0812644
0.0768073
0.0790964
0.0293531
0.105124
0.104356
0.000247478
0.077537
0.0793766
0.0780562
0.0788034
0.0772497
0.0712972
0.0780714
0.0580492
0.00796844
0.00695862
0.00965131
0.0972606
0.0986673
0.12814
0.0911518
0.0898704
0.0954334
0.0922406
0.0944763
0.0869275
0.0868859
0.0865116
0.0880281
0.107719
0.108329
0.107625
0.0918851
0.0953952
0.0659059
0.0706052
0.0682518
0.000219994
0.0847574
0.0855477
0.110077
0.108588
0.0667956
0.068183
0.0653221
0.0694689
0.0346244
0.0398449
0.034473
0.0367813
0.118961
0.117795
0.07762
0.0775995
0.0786038
0.0766348
0.0787338
0.0920566
0.089856
0.110513
0.107882
0.109052
0.109279
0.0841722
0.0832565
0.0844722
0.0827982
0.081244
0.082692
0.0825402
0.08129
0.074042
0.0744931
0.0731298
0.0554536
0.0567008
0.0574831
0.0545091
0.0763853
0.0793277
0.111401
0.0468485
0.0521249
0.0508694
0.00128032
0.072849
0.0715487
0.0718897
0.0729191
0.0712001
0.0793563
0.0802979
0.079028
0.0805181
0.0578281
0.0526437
0.0850596
0.0848476
0.0842584
0.0855956
0.116742
0.117727
0.118208
0.116174
0.0744725
0.0756738
0.0736358
0.07658
0.109989
0.109827
0.110208
0.0704196
0.0718985
0.0721066
0.0701274
0.123813
0.123882
0.123397
0.0536044
0.0868545
0.0860401
0.0869707
0.0860028
0.0419937
0.0539136
0.0256865
0.0110209
0.0943568
0.00448021
0.0031858
0.00291978
0.0292283
0.0633983
0.0205889
0.000707754
0.00100947
0.000665087
0.000284071
0.0526897
0.000364731
0.000427444
0.0101516
0.0100005
0.0865182
0.0154732
0.0138759
0.138859
0.0166943
0.12899
0.0203066
0.0304635
0.0304577
0.0218145
0.000583638
0.0799143
0.01371
0.00924853
0.00971172
0.00979632
0.115271
0.137129
0.0216026
0.0235891
0.0519702
0.00276257
0.0878325
0.137363
0.0951501
0.122659
0.119166
0.0839927
0.00319409
0.0265518
0.000380506
0.000565774
0.000544505
0.0236761
0.0222151
0.00646355
0.0254488
0.0042512
0.00500627
0.0230825
0.000748529
0.0930594
0.0542814
0.138712
0.138587
0.00043677
0.0401948
0.0384055
0.017828
0.011833
0.0421059
0.0412664
0.0426115
0.0713584
0.0744018
0.00645337
0.076349
0.137656
0.137315
0.0378971
0.000612256
0.00685471
0.00394973
0.0719076
0.011934
0.0345314
0.000467877
0.0382215
0.0237256
0.130342
0.00466614
0.0153011
0.0132448
0.138427
0.11414
0.00533116
0.0799701
0.037807
0.00753231
0.135341
0.0456713
0.00221998
0.0350346
0.0339393
0.00859195
0.020064
0.0209061
0.0228751
0.0183524
0.0262264
0.0461101
0.0474396
0.03641
0.00174151
0.0195454
0.0618009
0.136276
0.0170401
0.119058
0.0292892
0.128791
0.00082602
0.0220139
0.0208827
0.0219167
0.0989232
0.0496718
0.0509465
0.00997068
0.000348515
0.00137937
0.00405546
0.0756845
0.0738752
0.0306722
0.0284339
0.00734359
0.00956984
0.00434088
0.0368057
0.0398602
0.138494
0.00241131
0.137311
0.137706
0.0535196
0.0265383
0.0349603
0.088275
0.0866505
0.0344308
0.033296
0.0496598
0.0522171
0.00788471
0.00768102
0.0639676
0.0275965
0.0343787
0.0706434
0.0718438
0.0678471
0.0049866
0.0129675
0.0956743
0.0951022
0.0427355
0.0390252
0.0269769
0.0421998
0.0450911
0.0785033
0.00375172
0.00387256
0.0452143
0.138682
0.00757777
0.00998961
0.00895765
0.00300853
0.00403878
0.00821821
0.0108291
0.0177621
0.00365892
0.0084378
0.0112654
0.00416948
0.00563116
0.0304337
0.0297389
0.0432125
0.00856662
0.0119043
0.0355749
0.000691625
0.00117004
0.0307664
0.00282838
0.0360775
0.0325759
0.0242541
0.0231775
0.0121753
0.00848821
0.0104227
0.0135718
0.123561
0.0095464
0.0767782
0.0758384
0.0755704
0.0661059
0.0522568
0.00614305
0.0197922
0.011057
0.131408
0.0463384
0.00245303
0.0117606
0.0110274
0.0134689
0.00986036
0.00670577
0.140009
0.0327437
0.0349818
0.00784587
0.00616844
0.0987538
0.113952
0.142466
0.13994
0.00730698
0.0343139
0.138831
0.0407294
0.0410619
0.000773798
0.00773651
0.0250435
0.117643
0.120205
0.0173719
0.0873281
0.00945837
0.00822716
0.00934473
0.0041547
0.0819617
0.0830465
0.0838793
0.00154505
0.0351057
0.128672
0.128192
0.11477
0.0852255
0.0334884
0.0658646
0.0570633
0.115143
0.139185
0.13906
0.0428832
0.137625
0.0016717
0.00209757
0.00893891
0.0252365
0.0203917
0.0407744
0.0408789
0.0393996
0.0394665
0.00559006
0.00506692
0.00350698
0.138324
0.086828
0.0116131
0.121041
0.129885
0.130442
0.0629052
0.0705054
0.0684521
0.166246
0.148144
0.00140307
0.0119822
0.0986614
0.09723
0.0093452
0.00860494
0.0558649
0.0548897
0.0798827
0.0779446
0.0790411
0.0828307
0.0417896
0.0373223
0.0350868
0.0904824
0.03661
0.0363834
0.0429299
0.0286444
0.0355384
0.0313629
0.004677
0.0461797
0.00680243
0.134206
0.0105819
0.011826
0.041692
0.0549136
0.0439684
0.0413104
0.100681
0.093569
0.109269
0.0419647
0.0844372
0.0208628
0.138097
0.0597506
0.00171207
0.0371692
0.00496756
0.0050832
0.137741
0.0306194
0.0304543
0.0296744
0.137661
0.104726
0.109012
0.041828
0.0656821
0.0662677
0.0767418
0.0775779
0.0625763
0.0331442
0.0361888
0.0341139
0.0356531
0.0947631
0.0850732
0.136118
0.136634
0.0938931
0.0933386
0.11413
0.00699916
0.00598682
0.118158
0.0162119
0.136684
0.0623069
0.0643665
0.0662779
0.0888548
0.0854071
0.0877311
0.115336
0.146963
0.139252
0.117995
0.116524
0.117045
0.122668
0.00826985
0.0561536
0.0488141
0.0150232
0.0147035
0.0991556
0.0463071
0.0745722
0.0805441
0.0494302
0.170404
0.0255228
0.038481
0.0280786
0.027193
0.010011
0.0265541
0.027497
0.12192
0.12435
0.123305
0.0512508
0.052046
0.011246
0.110839
0.0301965
0.0213895
0.0327864
0.0294006
0.028929
0.0535754
0.0700854
0.0689219
0.0721238
0.133046
0.127179
0.00270821
0.00355315
0.138797
0.0323943
0.0131857
0.0120704
0.119251
0.117755
0.138596
0.110903
0.138684
0.13313
0.132366
0.0198839
0.0447213
0.126331
0.127181
0.125129
0.125751
0.0755815
0.0719773
0.0955231
0.0977977
0.12588
0.12366
0.00305393
0.119052
0.117951
0.0619294
0.138958
0.138792
0.138733
0.102184
0.100981
0.137696
0.139707
0.138347
0.0763811
0.0466125
0.0489554
0.0482593
0.0833478
0.082561
0.0840848
0.140135
0.138981
0.0905948
0.0605952
0.0631734
0.140285
0.138333
0.0487163
0.0491628
0.0507883
0.0312707
0.000461583
0.00428093
0.0787654
0.0255391
0.0291581
0.0307601
0.0745017
0.00121021
0.00220444
0.0939878
0.0947107
0.0344648
0.00790941
0.0150372
0.0174642
0.00530426
0.0419969
0.0430643
0.0460455
0.113374
0.115122
0.0364527
0.0137073
0.0147348
0.00590868
0.00670841
0.129646
0.127824
0.129044
0.134778
0.13739
0.108931
0.0821158
0.0804869
0.0683741
0.0736152
0.0722851
0.0849575
0.0901432
0.0766037
0.0747089
0.0382728
0.0404663
0.138719
0.138642
0.242721
0.227116
0.0537428
0.00773581
0.0578984
0.0102403
0.0229796
0.0201297
0.0199198
0.00695714
0.121672
0.0436175
0.0497611
0.0628061
0.059748
0.0586765
0.059926
0.0656513
0.0642682
0.060501
0.0456147
0.0321194
0.0203511
0.0393737
0.0161657
0.0576441
0.136745
0.012644
0.0134999
0.136098
0.136483
0.0498534
0.0504474
0.0463756
0.00910624
0.0503105
0.0524865
0.0868053
0.0648042
0.0630549
0.0987477
0.0241512
0.000721913
0.0678217
0.0691323
0.0165704
0.01302
0.0154849
0.0807379
0.0815525
0.0806134
0.0718401
0.0862868
0.0866477
0.116097
0.114617
0.133831
0.096793
0.0975947
0.0547689
0.0573996
0.0569127
0.0513988
0.0736659
0.0109128
0.139911
0.139695
0.13991
0.135331
0.0756818
0.0206951
0.02227
0.028887
0.0256607
0.0561237
0.0474189
0.0516015
0.0515838
0.0559096
0.0587321
0.0394445
0.0984936
0.104188
0.108686
0.0292855
0.0291151
0.0415588
0.0418304
0.049811
0.0712899
0.120788
0.0908154
0.128463
0.0376777
0.00514475
0.00579902
0.135482
0.0238203
0.108665
0.00637342
0.0385203
0.0355401
0.0385038
0.0196313
0.025907
0.067533
0.0292916
0.025878
0.0239095
0.0935143
0.0329148
0.00141965
0.00271443
0.110243
0.138312
0.105866
0.106467
0.0618882
0.112016
0.107062
0.0192952
0.0200756
0.0448485
0.0424785
0.0442613
0.0780629
0.0207225
0.0217741
0.140024
0.140506
0.0480572
0.0219478
0.0200782
0.0613695
0.138894
0.0909574
0.0889535
0.0639888
0.119606
0.044827
0.00577885
0.00265149
0.00555617
0.0450457
0.0904834
0.00666379
0.183123
0.00233075
0.00499969
0.00774559
0.00410827
0.00345969
0.00363176
0.00257689
0.00694589
0.129171
0.0362058
0.0377293
0.0500008
0.0608879
0.105117
0.103721
0.139474
0.139578
0.139402
0.0695324
0.0941591
0.0925978
0.0665172
0.064475
0.0620639
0.0553584
0.05531
0.0649766
0.0630974
0.0342035
0.0369285
0.0401234
0.145504
0.150549
0.138229
0.138029
0.046808
0.120096
0.116284
0.0384712
0.0421172
0.137667
0.137337
0.0106605
0.103057
0.102193
0.139076
0.138825
0.00903871
0.133992
0.0655124
0.0721643
0.0905951
0.0468294
0.0267192
0.00382832
0.0315692
0.0942804
0.119215
0.119565
0.0390554
0.0442492
0.0458713
0.0046838
0.06834
0.0690437
0.0602982
0.124886
0.125362
0.126317
0.0384236
0.0717122
0.074401
0.0753252
0.0742787
0.0534528
0.10538
0.107131
0.0636626
0.0673932
0.0683197
0.0668055
0.0678612
0.0701855
0.00132788
0.112774
0.113839
0.115913
0.03664
0.0340385
0.0891068
0.0882473
0.136853
0.136722
0.0438448
0.0476839
0.126921
0.127777
0.0642268
0.0649283
0.0640155
0.231602
0.187635
0.0786895
0.0769591
0.0217857
0.0245441
0.120929
0.0876765
0.0903375
0.131573
0.130778
0.129962
0.0526481
0.0566027
0.138506
0.138221
0.0718124
0.0704441
0.071281
0.0653578
0.0621386
0.108267
0.107864
0.106828
0.0317477
0.0371047
0.0988296
0.100168
0.0257993
0.138159
0.138334
0.0728054
0.126959
0.123049
0.0322008
0.0621574
0.0654202
0.0538597
0.0553389
0.0363876
0.138366
0.118031
0.102571
0.109288
0.114769
0.0405135
0.121354
0.138213
0.0271381
0.00255374
0.00508223
0.0835713
0.0838837
0.0145301
0.0685543
0.0516663
0.0474305
0.120663
0.125369
0.0617018
0.0655269
0.0476402
0.0630322
0.0672053
0.0134209
0.0677002
0.0670725
0.0630275
0.0144633
0.0143841
0.121846
0.0776329
0.0782183
0.0761777
0.0351781
0.0405652
0.0364914
0.0493459
0.0504896
0.0222234
0.0511972
0.0505957
0.0666116
0.064683
0.064798
0.00778825
0.00686355
0.0894149
0.0883758
0.0872613
0.051563
0.0465228
0.0524917
0.0463673
0.0482278
0.00336092
0.0457558
0.0959132
0.0959273
0.0955386
0.0951753
0.0471114
0.111795
0.112966
0.115009
0.0124255
0.148529
0.160464
0.0371716
0.0341153
0.125873
0.124164
0.150342
0.155407
0.0905019
0.0876007
0.0871874
0.0888352
0.0827698
0.0809681
0.111214
0.109612
0.111054
0.0617507
0.0636021
0.0633483
0.138533
0.14076
0.139917
0.0620137
0.0186789
0.118186
0.112202
0.0960195