/*--------------------------------*- C++ -*----------------------------------*\
  =========                 |
  \\      /  F ield         | OpenFOAM: The Open Source CFD Toolbox
   \\    /   O peration     | Website:  https://openfoam.org
    \\  /    A nd           | Version:  6
     \\/     M anipulation  |
\*---------------------------------------------------------------------------*/
FoamFile
{
    version     2.0;
    format      ascii;
    class       volScalarField;
    location    "500";
    object      p;
}
// * * * * * * * * * * * * * * * * * * * * * * * * * * * * * * * * * * * * * //

dimensions      [0 2 -2 0 0 0 0];

internalField   nonuniform List<scalar> 
29884
(
2.82346
0.108959
0.625388
-2.56083
0.0064868
2.62735
0.114597
-4.42995
-0.85214
1.17516
2.91057
0.798946
-1.1131
-2.38694
0.0302916
-1.94535
-0.315872
-2.20919
-4.46311
-2.97963
-3.48387
0.649975
0.387168
3.49163
-1.46899
1.23593
-0.733205
-1.36943
0.396242
0.456149
3.29516
2.8898
-0.789727
5.47069
1.98526
1.85148
0.937295
3.23655
2.00459
1.1598
0.888493
-1.50539
3.26075
5.25221
-3.58299
0.550347
-2.31357
2.3351
0.772301
2.60782
3.26417
-0.125344
1.24152
-0.829279
-2.91561
4.37269
-2.73361
-1.70086
-3.74818
-0.662775
-0.316195
-0.803185
-0.223631
1.11106
2.16821
-1.87685
1.50837
1.74829
0.843197
1.66456
-0.278248
-1.00634
8.02826
0.850531
0.59177
1.47586
-2.8
-1.34427
-2.62324
1.03483
2.35317
-3.35392
-0.403447
2.24267
-0.19073
15.8486
0.765288
-0.603476
0.161528
19.5691
0.567528
-2.3827
15.6405
20.8704
2.9267
24.5871
1.31831
1.43521
0.125056
20.7868
1.71013
1.87404
0.178713
0.583979
0.361916
-1.90827
18.9204
19.3754
3.35393
1.79853
1.42709
24.5898
-0.0681166
-0.197927
-0.173733
2.09884
2.60371
-0.00961673
4.15642
3.66875
0.938741
2.76031
2.29775
2.92901
-0.373062
3.54844
1.22614
1.50395
-0.688579
3.21868
3.46695
3.11261
-4.36958
-2.34892
-0.216993
-0.644316
2.37996
0.375517
0.36641
0.638901
0.358707
3.36484
2.18601
-1.99573
-2.15368
-1.93064
-1.59962
2.68127
2.17404
2.35428
2.90004
17.1516
18.5032
0.773618
0.68968
1.05976
0.619781
1.26893
0.95865
0.697131
1.06083
3.71762
3.92166
3.00458
25.8325
25.7623
-2.53826
-1.04348
1.16371
-6.09471
-2.83681
1.34177
1.36211
-0.324289
-0.20814
2.99344
3.3142
-2.96012
2.08788
1.94897
2.10089
5.75873
5.81047
5.1172
-0.0608644
-0.0805666
1.36686
1.23159
1.44335
3.47417
0.60447
4.62179
5.23214
-0.276207
-0.353233
2.77161
2.82179
0.783622
0.0123101
0.200998
0.539519
2.80002
2.60823
1.79866
2.67401
4.27386
0.125718
-0.298909
-0.398943
-0.790161
0.580327
-0.597887
-1.82078
-3.64563
-1.69136
14.5031
3.00751
16.8166
-0.871451
22.1588
22.4379
-10.3067
2.51476
-0.191922
17.2852
22.539
16.155
21.9684
10.9652
-5.76917
4.239
16.7385
14.9299
-7.25578
-7.47969
14.8819
15.1478
2.97712
-2.93009
-2.81458
-3.73048
24.3502
15.216
-6.45092
-4.00695
3.07997
15.7242
16.9008
-6.79133
-7.76872
-5.2374
1.97369
2.70716
2.53525
22.9856
22.6922
21.6933
22.057
-8.37414
-7.71924
-0.645983
3.41571
-6.57557
22.0337
3.35331
17.2504
-8.14506
2.28048
1.8113
17.3168
2.05686
2.1467
21.5325
17.0347
17.2362
18.2548
18.9602
21.6996
21.4317
-4.7045
-1.0431
15.2577
1.83482
2.20525
4.06185
2.9944
2.58838
-10.4701
25.9815
1.99795
22.5748
15.0777
15.0883
-5.56278
-10.5288
-10.6127
3.39076
15.0469
15.1989
-5.91365
-5.52406
15.9764
15.9198
16.0466
21.634
18.1453
17.1329
7.00275
2.73975
3.06721
3.02954
3.42681
21.3204
-4.94189
-5.60052
-10.3361
-5.9859
15.6177
-8.91499
-8.25482
-8.47856
20.7049
21.2346
21.4447
-11.3413
2.14418
20.6211
21.1593
21.2194
21.5997
2.10525
1.5682
1.55308
1.50245
15.3183
15.2467
2.40271
-3.00397
22.4993
22.4518
-6.43051
-3.26506
22.3432
8.68639
0.407209
22.7013
22.2859
22.4376
22.4721
20.0729
19.7677
20.6526
2.04589
2.10443
1.89754
21.1178
21.6673
21.7757
21.7809
21.7009
20.5435
19.6128
6.57842
0.159361
2.45584
2.22124
3.03692
2.90001
25.2515
23.2515
-5.81735
-5.25184
0.591761
0.7476
0.562135
3.49629
3.04023
-7.25673
-10.7783
-11.4256
-11.7049
12.3264
4.42219
4.38944
3.91467
-5.63314
-6.29167
-5.98505
-5.17311
17.0403
18.1536
19.1716
17.6908
-6.66371
-7.18014
-6.48596
15.2628
15.6359
-3.931
-3.92595
18.3057
19.4173
16.9045
18.1818
17.3315
17.0188
17.4161
3.24808
3.47909
2.18995
2.48091
15.1291
14.8453
22.5186
22.6781
22.8775
20.204
-0.0748992
15.3501
14.6404
15.6161
-2.70579
21.1985
21.0526
21.8947
20.2153
19.6797
19.4218
19.0095
21.2635
20.8586
20.99
20.4629
-4.02098
18.9024
19.8024
19.7697
20.0502
-3.93244
-4.28084
16.6913
16.3446
15.8605
16.0725
4.14963
3.7695
4.33809
-6.50696
-5.46676
-7.02782
-6.51979
-0.683586
-1.57268
15.2054
14.9911
1.27
1.32395
1.31315
0.96993
-1.29738
25.5017
7.16738
6.40217
1.78527
-6.70245
-6.24119
-6.96647
-6.33077
16.9979
16.0716
16.3795
15.3182
1.70386
1.55929
1.70858
1.02427
1.07035
1.23341
0.796779
1.02969
0.919232
3.90557
3.68592
3.76626
4.19643
-5.81254
-5.18112
-6.00444
-6.17353
3.30783
2.99889
3.09473
22.5015
22.7133
22.5647
22.0495
4.47496
5.29756
4.7218
24.3557
25.5283
1.50297
25.1943
11.4335
0.934886
0.906047
24.6141
24.3961
0.949261
0.977425
0.982596
1.4613
-6.53354
1.00744
-0.566211
24.7154
24.7616
2.52514
16.9964
-0.0732153
1.09397
-4.23608
-5.87099
-1.87197
-2.11105
22.8035
-3.64264
-4.1065
-0.244009
2.14476
-4.6202
-0.00428482
0.145116
0.185373
0.309463
-1.89408
3.42296
3.49242
-2.82006
-2.71049
-2.88945
-0.170929
-0.51484
1.33244
1.37871
1.17712
1.12274
5.0589
22.5174
2.50109
2.48557
-0.0468436
1.24677
-0.446774
1.04275
1.1205
1.15764
25.4259
1.53666
1.47386
-7.14786
-7.59591
-6.74551
-2.43407
-6.55644
-5.02513
-0.436666
-0.370332
-0.407382
15.2828
14.4748
-3.07249
-2.71452
-2.38134
-1.75966
7.77658
-4.7448
-1.02134
-0.841877
-2.49019
-2.79219
25.2829
0.278437
-1.20483
15.151
-0.118079
0.215072
25.9204
19.2661
19.8694
2.36217
1.20209
1.2757
-5.58284
2.38788
6.80045
7.61262
22.7453
22.5752
4.27161
4.82273
4.60989
1.13149
1.07444
22.8616
1.3913
3.79315
4.02108
2.02675
1.82149
1.67146
2.45026
6.08536
5.42761
6.68601
5.99695
2.98734
0.638242
1.6533
-0.794791
1.42073
0.333755
0.878241
1.02286
-4.1237
-5.05578
-1.54668
-0.128203
-0.50858
-1.02118
9.92386
11.1918
20.066
20.4494
20.8376
21.9763
0.919812
3.2784
3.05565
0.884697
1.53738
17.9832
17.3106
-3.80211
-4.08097
-3.31771
2.16947
1.08343
3.41669
3.7469
7.11616
3.96049
4.62892
-9.04916
-9.07501
1.2391
1.41051
1.2085
1.4429
-2.66257
13.4236
12.6822
11.8465
1.75933
1.86584
1.99018
1.9459
2.09354
1.07413
3.15559
3.33781
-3.48574
-3.34499
-2.97884
-2.12884
-2.37543
-2.65173
-1.37788
0.533814
-1.99249
13.6428
12.6921
11.5335
22.8102
22.686
5.31471
5.78416
20.3417
20.5808
-0.600951
-1.10359
-0.347915
17.0415
17.5211
7.34977
6.55736
23.2411
13.7831
-5.39286
5.69809
3.57785
4.7206
23.5882
3.893
-18.5153
-5.23319
-13.9959
0.0860627
23.1193
-5.68215
-13.2821
17.4224
-17.2639
-4.65627
-5.04915
3.60411
3.63468
3.55335
0.940313
0.119855
5.3972
-3.38165
-3.6981
-10.2783
4.81548
4.48704
-2.2659
-1.99457
-1.3518
0.399927
0.0347561
-0.346884
16.7375
3.05865
4.4064
-2.10339
24.7936
14.6479
14.2252
23.7588
-14.7014
4.82783
-10.6449
-13.3685
24.1062
1.70579
0.94478
2.55258
19.9851
-12.9949
-12.3772
4.23215
-2.63313
-1.97775
-1.25948
-0.38386
-3.51394
2.66714
10.0163
-8.27042
3.41059
17.1967
17.1439
2.06226
1.95573
-12.0278
-0.310196
18.343
-4.61165
-10.7535
0.368508
1.24052
4.43565
-35.2129
-1.48817
0.534768
3.1737
14.1041
14.1486
5.12521
-3.3356
-3.80719
-4.34408
-33.288
1.46955
-7.58462
-7.29881
23.0303
1.87217
1.16351
23.201
23.0195
-9.15839
-9.27205
1.85218
-12.4617
16.5839
0.968052
0.566779
1.97162
-5.34588
15.486
0.985464
0.627028
-6.7504
-3.25489
-2.45626
-9.53358
25.5996
12.7727
-8.76182
5.31642
4.9307
13.8468
14.2196
-3.69223
-3.37463
-14.4778
-25.8363
-4.09546
-7.24698
-6.39333
17.4686
-1.24356
-12.7696
23.3921
-18.8201
2.39172
-5.02022
-5.22373
2.59928
2.59146
-0.595494
12.894
3.71482
-21.8928
-10.8412
-11.0234
2.88825
-10.1241
-1.87281
-0.119486
-13.8214
-13.8772
5.20785
17.808
21.0497
-1.39319
1.75636
3.30656
13.2103
13.0328
-1.04356
5.86766
-1.15431
-1.01376
-3.25867
3.24625
1.24199
1.25566
7.31228
8.16743
16.3271
22.8922
23.0961
23.0587
-1.4869
-0.0929441
-6.92715
15.4008
15.5192
9.95633
1.84391
12.5196
23.4917
11.9366
11.4567
-4.58613
2.29554
-2.28877
12.6674
12.7321
-2.0074
1.98587
-13.5282
4.07958
-13.7342
4.65295
4.17231
17.4569
1.3776
-18.5305
1.86334
-12.8768
0.137783
1.40104
13.1503
12.1588
11.9016
4.13661
4.56805
2.56189
-10.7474
-10.889
13.2153
2.72234
2.45213
2.18743
1.2763
1.0849
2.73824
-5.98544
-6.62166
-21.3308
-3.02718
-2.36077
-2.56473
6.44959
6.17094
4.8254
5.17909
-2.33616
-2.55172
-9.63944
4.75326
-0.421798
-0.647077
-11.153
5.99896
-23.3965
12.269
-13.2438
-12.9985
-21.0766
3.63232
-13.043
2.3182
2.48361
-10.5228
-8.35838
1.14415
13.4131
-18.6542
5.30207
5.7107
-13.7661
11.6808
-6.91958
25.005
2.8211
3.31562
3.6309
2.5382
2.77844
1.61503
1.77572
2.30207
3.77929
-12.5103
-11.5733
5.21095
3.39207
2.7602
0.564331
0.184481
-0.0842439
1.84541
-6.16628
-6.91068
3.67345
3.63558
-1.87358
-8.74374
-9.14205
2.49823
2.73383
24.7325
-7.28876
-6.52523
-1.86011
22.3422
-0.375557
-0.13949
-5.29853
-4.69268
1.16476
1.6858
2.42596
14.3078
14.9626
-12.4552
-2.63184
2.48039
-12.8648
-12.6841
-12.8849
17.396
17.0711
-9.60716
2.29618
-14.0391
-14.3573
5.67127
5.16005
-12.8377
-12.7785
-12.9945
12.6099
12.8893
-3.9978
-13.5374
-1.26537
5.409
-9.0156
-9.32184
19.3358
-8.72478
-4.90928
-6.60453
4.7911
23.6056
-1.56068
-2.12545
3.1927
2.58571
-14.2027
-8.51257
-7.94405
-7.64124
-6.94894
2.68137
2.70961
2.47922
-12.3827
-11.8029
15.7252
-3.68005
-3.67548
1.91139
-9.38326
-8.8308
-3.31952
-2.864
2.47057
12.748
12.6316
-11.0918
-11.0722
3.66017
3.93168
3.81559
4.4861
4.9374
12.6569
5.59919
22.5989
-10.3165
-10.7558
-10.4439
-10.2783
-7.83312
-9.14462
-13.8453
-13.6694
-0.677671
-0.653291
-0.824504
0.280493
-1.24773
-3.33606
-3.52432
23.3429
16.2241
-7.89761
1.80002
1.56708
1.31611
11.7511
1.0509
1.63782
1.67842
1.21524
1.95449
1.98441
2.10528
2.73462
14.1806
13.6366
13.7294
14.149
-0.741416
-1.24368
15.5051
2.67451
2.65477
2.70241
-0.225686
2.71154
18.6991
-4.60808
-3.84176
15.4741
15.925
14.7859
-0.388083
-1.47287
-1.52591
1.06141
0.88844
1.10133
-1.22107
2.57962
13.0256
13.1571
12.9373
-4.85785
-5.31923
-4.63236
1.87781
13.3875
4.35878
3.3186
-1.92093
22.8052
5.96682
5.7508
5.67953
-6.61027
19.7241
-12.5136
13.9855
14.1058
24.5448
25.8972
1.68975
-2.06514
2.64223
-3.59416
-3.23515
1.24859
12.0894
1.5376
4.82149
-14.8625
1.31944
1.58432
1.69422
15.3611
2.13447
2.22389
2.15217
3.56532
4.30042
24.2032
14.1396
14.2845
-2.18608
-1.76689
-1.68778
21.3564
22.8924
2.89331
15.9649
16.3649
14.8005
14.1487
14.0582
14.3802
2.45709
16.1933
16.3033
-13.9291
24.5187
3.48867
3.94748
1.32556
1.36653
4.3673
-0.504717
1.01108
0.862265
2.35931
2.38587
-11.4727
2.0246
2.18645
2.30534
0.550551
1.02345
6.49383
3.18883
5.80221
-0.680386
21.5656
23.045
0.146029
24.7264
-8.42505
3.2196
12.7993
-4.33311
14.6142
14.9496
11.586
11.8299
2.39998
1.90429
-0.290328
-0.187224
-0.368741
1.00068
1.22215
1.05989
5.13678
5.09006
21.7976
22.3066
24.9533
-1.0313
-7.0089
3.03969
3.27062
3.22652
3.69369
3.41137
12.7142
12.5388
1.55176
1.50547
-0.812263
1.32146
1.19805
0.909789
14.6043
-0.0428405
2.50755
2.40179
2.97298
2.56512
-13.3708
-13.6352
-12.9978
25.0018
15.3302
14.783
15.4384
15.8495
4.99109
4.84988
21.3599
2.29978
2.34954
5.00913
-10.4007
-10.4335
-9.29596
13.7193
13.7009
13.396
-11.4551
-11.7125
0.228865
-12.5744
16.6899
16.6927
11.1584
11.1486
2.51083
2.62634
2.43968
2.41759
4.49956
4.40217
11.8298
-10.4783
-11.3127
-11.4441
3.6325
3.33433
25.9089
15.3794
15.1081
-3.95156
-4.22182
25.2967
22.1
22.6475
23.1843
23.2234
-2.36271
-2.89419
-12.8299
-11.5198
-14.8899
-12.9451
22.9051
-9.19991
-9.66333
-9.6091
-10.3689
-10.4143
-9.98506
-8.98652
25.4124
25.5056
22.8296
22.5612
25.1782
20.9944
15.8857
15.7237
19.1148
-5.9746
24.0786
2.42478
2.26462
2.3779
2.91326
2.81065
2.65842
0.147771
0.480506
0.549858
1.24106
4.87606
-10.7739
-10.7352
-10.1866
13.1216
12.2467
12.9171
0.714168
1.46928
1.07298
2.32932
2.3562
2.43655
6.35561
3.09767
3.43224
4.07854
0.480809
0.75456
-13.3615
3.79024
2.88618
3.01458
25.4655
25.3117
2.60744
2.61781
2.71283
2.91307
-8.68881
2.40191
2.20626
1.29098
2.35585
2.66716
2.7306
2.64638
-0.794789
-0.50428
-0.637623
-2.0398
-7.05304
-13.3901
-13.1144
-13.3516
-13.2814
18.8314
18.084
0.692706
1.41514
3.86417
3.12902
-16.4297
8.45215
-8.11578
-8.90618
-5.6788
25.7137
-13.3286
-13.2341
3.83553
4.55011
3.03538
1.73209
1.81862
22.3373
-4.63153
-4.48191
-3.74822
-9.29457
-9.9196
-9.82059
-12.1395
-12.2761
-12.1865
-3.8203
-4.21878
14.3213
14.0953
1.2731
1.29266
1.71847
25.6552
20.8638
23.9587
11.2131
-11.5088
-11.3811
-10.5614
-11.2932
-14.8247
14.0403
13.9378
13.5052
-6.05958
-5.42618
-5.72983
-5.18247
-12.7713
-12.4227
-13.0313
-13.1239
22.8524
23.1741
22.7687
22.7433
-9.11334
-8.19365
-8.94506
-7.78611
13.3562
-6.01703
2.65887
2.54619
2.38763
2.4729
-1.5068
-1.01107
-1.22996
-7.62165
-11.5568
-10.9104
-11.5229
0.661013
1.02544
1.44673
2.7179
2.74209
2.50556
0.330731
-0.0450802
14.0759
14.6447
14.1185
13.3793
2.07758
1.86375
1.811
1.7139
-10.8651
-11.5903
-11.7012
-1.88485
-2.70446
2.94184
3.39169
2.86262
-12.9231
-13.5843
0.317471
0.446792
1.03071
1.57039
0.384604
1.08875
1.7306
1.30988
1.69102
-5.1036
-5.14303
-7.09411
-7.73662
-7.17913
-7.29441
12.5965
12.7454
0.0611743
14.5289
14.3431
16.7327
1.81839
1.99498
2.13469
2.04321
16.9407
-2.70141
-2.0466
-1.93824
-1.10023
2.84784
2.48899
12.5707
12.7164
12.6296
13.0116
-2.21925
-1.63357
-2.50294
-7.68496
-8.08753
-8.43304
14.3684
13.9226
14.94
14.7907
-8.22671
4.55048
12.5779
-5.94535
-6.19023
-4.5936
-5.35573
-25.4367
5.35516
-25.2072
-24.9515
3.10326
3.34308
2.90772
2.91973
-0.475521
13.963
14.3627
3.11025
3.06255
3.21555
0.030427
-0.318259
-13.3362
-13.2619
-13.3559
-9.93035
-9.77111
-9.73294
-8.93981
16.4469
4.69581
5.19405
-5.26084
-5.72917
12.9642
13.4102
13.3531
17.2229
-2.58755
4.20398
0.782393
0.564037
0.749175
0.773908
-7.23509
-7.49995
-6.65701
1.00489
0.928448
0.659397
15.1302
15.2602
2.8364
2.44158
-8.45527
-7.91759
-8.73023
5.57188
5.37382
3.75235
-7.57777
-7.88713
-7.3162
-8.21616
-8.6214
18.6083
18.1117
18.3885
-3.76017
11.8278
11.7021
-1.28075
-1.30592
-0.155825
1.77338
1.10867
-13.3035
-13.3161
3.14007
2.97329
15.9088
15.3228
4.78286
4.50252
2.56989
2.32133
2.51058
2.53948
2.10289
1.89264
2.11945
2.15637
18.509
18.2857
0.58488
0.149773
-0.43783
-0.00853671
0.633093
15.3652
15.3245
15.1766
22.9355
23.0534
22.7121
23.065
16.5243
14.8924
15.017
14.8003
1.32524
0.953758
15.7917
16.0109
2.90436
3.18586
3.43961
4.60848
4.38057
-13.3347
-13.4818
-12.9906
-12.8546
17.5151
2.61647
2.58207
16.6018
16.2662
15.8148
16.2048
0.543469
0.702068
0.290593
-5.87205
-6.26723
-5.6451
2.62159
3.09412
2.2922
14.7309
14.9379
15.0631
15.2297
-2.97135
-2.79986
-2.59027
11.5389
-13.0951
-12.8247
-12.2087
1.42614
-5.47592
-6.1663
-6.06066
-6.47944
-1.41524
-1.87884
-0.902465
-1.21481
2.82183
-11.9573
-11.7406
-11.2702
-11.6675
2.26426
2.4894
2.37263
2.35134
2.26783
2.27381
2.3457
2.29421
2.14667
23.5258
14.6146
14.6803
-13.2474
-13.2935
24.5089
-6.47849
1.76724
1.33555
-0.699162
-0.545399
-0.131505
-0.572772
-0.113607
-12.2737
-11.8199
-23.3948
-22.7092
11.5463
11.9639
12.494
12.8381
4.27656
2.80703
2.70315
2.9482
-26.3676
12.9802
13.0847
11.9001
12.1546
-7.23083
-7.04817
-6.4431
-6.17178
1.84887
1.87886
1.8053
4.21777
-10.8256
-10.5711
-11.1522
-11.0639
-9.70026
-9.2482
-13.0354
3.8618
3.69296
4.7035
14.875
14.2343
14.5785
14.5174
6.53679
7.03374
-2.79545
-1.72335
-1.04813
-1.11371
15.8527
15.4717
15.311
-7.25122
-11.6423
-12.8055
16.0264
15.8933
4.35335
4.58145
4.5701
2.30174
2.3022
2.33969
-8.78706
-8.79537
-8.80826
12.5665
12.2312
12.1843
12.6646
22.8711
14.5493
15.0384
14.0354
14.5781
-4.23699
-7.12386
-5.02151
-5.46379
-0.996231
-1.08851
0.151618
0.317996
3.21657
2.69504
2.59952
2.4856
2.69759
-0.559715
0.753625
0.139847
16.9422
3.0128
2.92616
2.93997
-0.650793
-0.079833
-10.6801
-10.6513
-10.5281
-11.4592
-10.7603
-11.4637
5.32068
23.4594
4.67561
22.1525
22.231
3.07717
2.66584
3.09754
-5.48312
-5.40164
-5.94057
0.509465
-12.4304
-12.9742
-12.9991
16.2516
16.5419
2.34275
2.16525
1.97796
2.18004
3.32092
3.39632
22.1589
22.2056
2.23907
2.08347
2.37832
2.39233
2.27333
2.63077
15.9052
3.58364
3.62134
3.54617
0.415255
0.767964
0.46047
-22.1752
-8.34187
-9.08599
-9.67955
-9.1043
15.5637
15.1339
15.1787
15.4751
-4.24418
-5.08347
-4.81518
-9.49837
-11.0068
-13.7659
-10.652
-18.6435
1.38074
1.28512
-2.07079
-1.71303
-5.02032
-5.58064
-4.58302
-3.90673
3.1874
3.14305
2.85249
3.24513
16.7792
12.1264
11.7787
12.257
-7.28367
-6.72475
-6.90119
-7.25403
-9.81082
-8.57272
-9.72071
-9.63894
-8.70467
-5.43881
-4.93966
-5.09911
-4.15347
12.0749
12.0079
0.699498
0.641862
-10.6287
-11.1164
-11.0011
-11.0749
0.980812
-6.30531
-5.76016
-6.51351
-6.03065
1.82504
2.06041
2.0448
23.247
18.5054
-8.88377
-8.36787
-8.04691
-7.36737
2.62197
2.81087
-12.9034
-13.1795
4.20838
19.5671
2.34494
2.27679
1.71196
-4.9142
4.84606
4.88529
4.79464
-6.36333
-6.60828
16.2787
-8.3801
-9.46883
-8.81058
-11.1571
1.27427
1.54246
1.31917
21.9686
21.9211
25.9853
-2.09107
15.7
2.27202
2.41264
1.70813
2.16642
-0.200434
0.143919
1.06264
0.940601
2.31353
2.42114
2.64253
2.49582
-8.23466
-7.62752
-6.7672
-7.36914
1.87019
1.92955
3.30605
2.33249
-5.90522
-5.48825
-6.31903
-9.86551
23.6157
-4.64358
-12.3831
-11.7436
1.1705
1.14965
20.9122
-10.5127
2.44475
2.62124
2.46023
16.9492
1.30051
0.986735
1.42042
1.92364
3.05117
0.952554
0.64258
1.69501
1.96333
22.179
22.3099
21.6464
21.9267
2.42643
2.5022
2.43982
2.19868
0.99108
0.805119
0.607479
0.896804
3.61443
3.95768
4.0601
3.87488
16.134
16.0312
15.5045
15.8126
15.3041
15.5557
-8.70056
-7.79339
-9.20069
-9.30114
-0.685126
-0.667049
-1.07752
5.49967
-13.6834
-13.9088
-13.3721
-10.7017
-10.489
-9.44089
-10.8114
-11.8338
-11.902
-12.4976
-10.9053
1.9081
1.39195
25.9978
14.945
14.5555
14.6376
14.3447
-13.1382
-12.1785
-11.603
0.381261
-4.37476
-4.34766
-4.40437
-12.8555
-13.184
2.03589
-12.714
-12.3952
-0.825582
-1.25618
-2.11294
-8.98393
-8.02985
-7.53574
-8.51877
-13.6302
-13.5598
-13.2837
7.09093
5.97038
-5.56718
-4.79523
-5.26513
26.008
-7.54339
-7.26296
0.342583
0.317911
1.54614
2.47376
2.33077
2.54015
-8.99411
-7.84207
21.579
21.7949
0.172269
0.705429
14.6429
14.8733
14.4886
14.7931
-4.66423
-12.3868
-12.3263
5.21191
5.39183
4.62207
5.22758
1.73598
1.73636
1.92865
1.80216
1.56558
1.64766
1.83576
1.73444
0.856442
0.937543
0.852439
-9.46448
-9.25312
-8.28108
-8.64007
-12.1739
-12.3651
13.4141
-9.48847
-9.41104
-9.49394
3.7881
15.507
15.9578
15.8429
0.642582
0.494611
1.38413
1.4816
1.44546
1.68055
-12.3169
-11.4284
2.317
2.47449
2.01684
2.2014
1.1047
1.68512
1.74465
2.08309
14.7871
14.9663
15.2784
14.9524
-13.27
-13.1432
-13.2525
16.3761
16.1324
15.5068
15.7931
4.42236
4.41892
4.25307
19.2991
2.39001
2.19903
2.26987
2.20728
-16.9064
-17.4948
-21.9654
25.046
-4.1226
25.2285
25.4136
25.4787
23.5636
-15.5784
22.1214
23.2049
23.293
22.544
26.0268
18.7164
25.7821
25.8124
25.0421
25.0854
-13.8004
21.0818
21.035
0.538053
24.3533
-6.25949
20.4318
23.7201
23.7289
-7.81783
23.4997
1.82093
24.8498
23.1643
23.0631
22.048
-1.20744
-0.0507829
19.8012
19.539
-16.6512
25.2036
1.38989
2.1943
-1.67979
6.25583
7.27698
-7.56025
25.7323
21.5369
25.9254
25.8824
25.8358
-10.6815
-11.1175
25.5261
-10.8748
23.7239
23.5702
23.1874
24.0378
-4.67105
-17.2928
0.497203
0.624969
26.0458
-19.6956
-20.1667
20.6038
-22.6973
18.8216
18.849
18.8072
2.05499
2.04475
25.5059
-0.996006
1.4084
1.6216
-20.2849
22.1363
22.2491
25.6764
3.70766
24.2488
20.6941
25.7686
19.9178
23.3812
2.68581
23.5266
19.8592
19.905
0.658248
7.20334
21.8915
18.1119
23.4306
25.2854
2.26453
18.1395
25.5534
23.4676
23.5076
25.3835
24.6265
24.5635
24.031
24.4087
24.2582
19.3467
19.128
23.5142
20.8782
24.2554
17.1914
0.822777
24.6614
11.8029
19.181
-1.31066
24.1391
23.9212
24.0739
24.1295
5.45845
18.9576
18.841
-27.7568
25.8606
25.8714
23.5963
-0.557464
-0.582332
-21.2887
24.112
-24.0077
-23.3167
24.1527
15.123
15.3428
-1.41309
16.1075
0.164736
0.107867
18.813
21.3307
23.4901
-1.02374
-1.55406
23.6037
22.7268
3.16443
18.6474
25.242
21.727
16.7702
21.311
19.6186
-11.9774
-12.4152
-11.9499
25.5518
22.6798
-13.5602
-13.745
3.35695
3.15753
-9.8264
-7.58132
-7.2182
0.267951
25.0726
24.7607
-3.60689
1.44151
22.6121
22.3696
22.7927
25.3983
25.3335
22.3594
22.0365
24.2182
25.4324
22.1202
21.7856
24.7661
24.7007
23.977
23.9742
4.00613
21.732
21.2998
23.6651
24.9523
24.3872
22.2472
25.7567
17.384
17.648
23.7209
23.6551
22.8969
24.6552
20.7072
20.4413
1.48952
21.2745
1.22312
1.1642
1.14881
-13.9335
-2.34673
24.5132
-12.5447
23.0345
2.23234
17.4473
25.6036
23.1998
23.0549
23.1117
24.9638
24.2723
1.08781
9.0852
8.43819
21.4729
21.8333
-1.07296
1.7397
-2.87529
-2.7195
24.0041
20.714
0.332811
17.1964
17.4813
24.6535
23.6781
-23.3006
8.42088
7.75242
21.8241
-4.31356
23.104
22.8965
22.9361
25.675
-5.60974
-6.34353
-6.13609
14.1072
23.6316
-0.740436
-1.09629
4.1177
-0.145178
-21.1525
16.6803
17.4315
1.82273
0.791759
0.629077
18.4888
1.84081
25.8122
25.761
25.1036
23.3537
-24.4342
23.1419
23.1804
23.2418
23.3068
21.6126
24.0036
24.1362
-1.95153
-6.70578
22.1593
9.20288
3.33616
3.35794
16.9244
0.940367
0.825567
-3.34723
-3.75815
25.4674
-22.2667
-1.00708
-1.42516
22.4611
22.6219
18.2466
18.2853
1.43347
1.3454
-0.691783
-1.00913
23.0233
-9.52191
-9.09651
0.771268
23.4329
23.3951
6.64535
24.0157
23.5806
20.9799
24.6191
18.0049
22.8
-1.83036
22.6132
22.4034
-17.6866
4.00716
18.0911
-17.6562
8.42428
9.15538
8.28798
-17.7912
1.41029
3.77854
-5.11733
17.5394
25.4225
23.4324
22.8003
22.5903
-2.26454
23.5022
23.5331
18.8773
-5.35152
-5.51872
-4.46119
18.5301
16.7152
16.6428
1.11409
1.26355
-14.3011
22.0958
22.0072
22.372
21.8168
-1.0223
-1.30998
3.6719
3.33689
-1.80303
-1.55899
1.62453
25.2949
25.3513
2.74738
24.6487
-6.80667
0.283011
0.405782
0.631829
-12.8437
-12.4703
-12.7843
0.0699167
-4.22227
-4.78534
2.54894
1.68472
1.71789
-0.0836193
1.30307
-3.75889
-3.5313
24.685
24.659
-1.18816
19.412
-12.4093
-12.6193
-11.3627
-2.43585
21.2538
19.2605
20.9165
8.31907
25.1856
18.9156
18.8479
0.626593
0.703964
0.850163
18.8517
18.6761
25.0624
1.29281
20.5287
8.35785
21.0834
21.0581
20.6038
0.325172
0.283433
-10.0392
-10.29
-4.63288
-5.13494
23.8691
23.8032
1.50244
20.1343
22.8194
24.9545
-0.884354
-1.45936
0.81649
-5.14937
0.720287
1.64624
1.48735
24.6595
18.5742
2.55057
2.4467
1.79364
2.22945
-3.86652
-3.10812
3.83295
3.76434
8.53148
9.34668
25.7308
0.317268
-0.152569
-2.03121
0.24777
0.323393
0.322888
-0.865808
-0.632142
0.747459
0.660055
0.43067
-0.876614
18.18
17.9945
17.3453
-6.26827
-6.20546
-6.97826
-1.14434
-1.23453
-6.80076
-11.3166
-11.8089
-1.86224
-1.54549
-1.91302
-2.04023
17.0761
20.2047
24.948
24.0864
3.50125
-6.44512
-6.72494
-6.63289
0.953068
24.172
23.9901
-2.47698
-2.03886
20.5455
24.5276
21.8933
21.6902
25.3471
16.6353
16.7934
16.4161
0.335421
0.286147
20.2453
25.0221
24.9784
25.2607
25.2353
7.87333
9.1725
-6.40574
-5.45197
-8.60226
1.94999
-9.16496
-8.51912
-4.51282
-4.65632
-4.93685
-4.57273
-4.49558
-6.38495
-6.6639
20.0606
19.89
0.638187
0.729718
-0.89656
-6.24439
17.9046
24.99
17.7559
24.9811
21.3417
21.6334
21.5685
25.334
-4.64481
-2.40004
-2.86486
-3.33627
-3.27048
-0.931092
-0.796985
-13.4136
-13.8213
17.3063
6.00898
20.8566
20.8147
6.29481
19.9302
-9.3262
-0.0293713
24.3776
24.1865
-0.866181
-0.841154
17.9165
-7.44099
-7.33793
25.3304
-6.39999
-5.81345
-4.57811
15.5336
15.5868
-0.179045
23.0365
24.776
15.4966
15.494
20.6104
20.5258
20.2985
1.69807
1.73699
1.6806
-3.79277
-1.07328
-1.07753
2.12471
1.88147
2.75062
2.57194
2.73655
17.0984
16.8098
16.8366
-1.78248
0.672403
24.7462
0.997837
1.00462
1.04329
1.77995
-11.8387
19.2099
19.8022
19.4763
20.109
-1.67147
15.2654
15.1017
21.7728
21.3935
15.6065
4.06398
16.1077
15.6284
15.1472
23.7801
23.6881
-1.59727
-1.82275
-1.55698
0.433168
2.87218
-6.17138
2.14162
23.4943
25.5114
25.4556
1.9796
23.0197
0.847212
-20.8506
16.8566
16.8335
16.5616
20.5344
20.6646
4.28639
-6.13133
-5.83899
-5.95923
-0.212488
23.554
24.6502
24.0685
0.965173
0.806391
2.76772
2.90906
15.0538
-1.58035
-2.51125
24.4193
24.4156
22.7911
22.8833
22.6687
-0.764658
24.2915
24.2713
0.973469
0.222466
15.0201
22.7906
22.7447
17.6098
1.05526
3.04542
2.75498
16.9311
3.14081
15.7442
22.8138
16.4563
16.8963
22.6457
-0.761113
22.5622
-3.60452
25.4464
18.1207
18.2786
25.6355
25.6657
25.6795
25.3992
22.4703
1.72742
23.1477
23.2842
-12.0337
16.8484
1.26379
0.524818
1.24368
1.14259
1.29273
0.225083
2.39855
2.33674
0.954879
0.635592
0.427832
17.7364
17.6011
-0.282238
-0.464249
-6.74617
-7.02267
-7.14923
-2.06185
-1.91733
1.6827
1.74343
-2.29044
10.1358
11.1138
14.8868
14.8009
2.08213
2.3012
-5.69337
0.731763
0.278235
0.895353
0.87098
22.5696
5.67167
18.4067
17.9488
-1.41185
17.7599
-12.8486
25.2286
0.0287085
-2.3189
2.66073
2.90556
-4.75825
-4.9599
-4.63686
24.085
15.9223
16.6186
17.1971
1.54668
1.299
1.14704
23.3906
15.7236
15.3884
15.3838
15.1757
2.48235
2.36609
2.32274
-4.38192
16.3086
16.259
16.4213
14.9944
14.8428
25.6051
0.79554
1.20572
0.944995
-9.8351
-9.69807
-9.22841
-8.31752
2.95531
3.14568
16.2493
15.8967
3.06779
3.15423
16.3362
16.0645
16.1566
-3.54291
-3.17285
1.92558
1.83522
17.7276
17.7444
0.387601
-10.0561
-10.5641
1.88336
1.6426
2.0262
-9.88806
-10.2601
0.842165
0.790086
15.728
15.9275
15.7237
-8.9682
-8.83067
-0.785758
-0.579765
-1.11438
-3.22401
-3.1111
-11.9087
-12.2231
21.4435
1.80419
1.66563
-14.1273
5.1285
5.49685
19.0925
21.3011
20.8702
16.3192
16.4805
23.3798
1.63588
0.548661
0.288891
0.930808
1.0983
19.7985
2.9765
-0.112206
-13.2831
10.2795
10.9043
-7.58152
-7.41889
24.9985
0.0472601
4.82892
4.83275
4.08937
-8.07587
14.2233
13.5732
-12.0146
20.6921
20.3663
22.452
15.5953
15.8854
-0.160021
-5.87606
-6.06875
3.34129
14.5981
14.4633
14.648
20.0343
20.4981
20.648
22.0598
22.1489
-2.69849
22.3746
22.2684
15.0773
15.6824
15.7279
25.1996
25.2553
2.27781
2.24071
2.19505
0.640303
0.149816
21.5193
21.9506
21.6702
25.6145
-7.72427
2.41573
2.35432
2.45601
2.48686
19.0149
4.10352
3.3807
3.53307
-5.5022
-3.55648
-2.40529
-6.17334
-6.33208
-0.0673054
0.0158808
-4.80061
-4.19082
-12.0723
-11.6957
-12.2507
0.639259
13.809
14.2256
-0.54232
-0.527024
-0.150874
16.2826
16.0667
15.9707
-1.32488
-1.20832
-1.46696
-12.878
-24.8554
5.32969
5.49282
-11.5635
-11.2102
2.12881
2.38739
16.3532
-11.7434
-11.7773
2.78899
2.68279
1.474
1.5023
6.61015
7.23357
8.2487
17.1274
17.065
-10.8533
16.1561
16.3815
1.26802
0.657872
1.06453
1.24379
0.558621
-4.21255
-2.83143
-3.50618
7.81709
8.64462
10.0668
9.5521
17.4468
17.7034
-1.42083
-1.52909
1.98635
2.08624
23.3936
25.5626
15.4971
15.3616
18.5991
-4.79749
-4.55554
-4.5695
0.82642
24.8286
17.6713
17.7773
2.67898
2.56164
21.5545
21.5641
-11.7274
-11.7007
2.66851
2.14976
1.98426
17.5567
17.7497
4.44216
4.87042
16.3899
16.5429
23.0043
22.8491
-21.7159
0.24621
2.35622
2.34927
-3.17981
-5.25996
23.3535
-11.9123
-1.61644
-6.23418
-6.45207
-1.4228
-0.821202
-4.57893
-4.78918
-0.566572
-0.495107
-0.960584
2.8226
3.06339
-0.0375626
0.546291
0.250174
24.2796
23.0336
25.7055
22.4315
22.5104
22.0087
22.447
1.50801
2.08041
1.58817
-2.67291
-2.62467
2.12808
-0.0940543
-0.292696
-0.388598
-1.97894
-1.88291
14.9575
22.1431
5.26739
15.4437
15.0769
-12.7528
5.82107
0.612154
6.43028
-19.1457
8.66218
-12.4868
-13.8004
-12.1253
3.92953
4.70905
6.35355
4.88331
-12.3941
-15.8184
-8.67305
5.94702
6.37234
6.80533
8.75702
10.4716
-3.91682
-5.61216
4.47359
3.88336
7.65124
3.29734
-11.9528
-11.8153
7.74116
8.55375
3.4481
-13.1723
-16.8225
-10.4692
8.97286
-8.5875
0.613095
8.25812
8.0483
3.49721
3.59401
-4.50335
-5.14946
-9.65282
-12.5001
-12.2444
1.86124
0.562927
8.97457
9.17886
3.18807
2.96406
12.176
-7.27798
11.236
7.89758
0.431446
-1.10402
9.45392
4.75239
7.61042
2.73229
10.6437
17.0734
4.70939
7.46097
5.73027
3.10957
7.21066
3.64262
4.38634
5.89114
5.54021
-14.0668
-14.2031
-0.79098
-2.96435
-19.483
6.33316
-4.18738
-6.30994
10.9893
1.32482
10.6592
0.702939
0.0261461
-13.3508
-11.0587
-5.8162
-6.93835
1.52892
-11.7701
-11.7794
3.89291
-0.0128492
-1.03429
0.117834
0.7761
1.80345
13.277
-5.90348
-1.04262
-0.475483
-12.7331
22.9278
-2.17032
-29.0243
-17.3426
-19.947
3.30425
-9.38144
-10.5737
10.2924
9.40318
-5.50669
9.01538
-15.5541
-6.22151
1.66068
1.61338
1.26076
0.919302
-12.2851
0.641618
3.47985
-4.25404
7.76148
0.657784
-0.164629
-14.9632
13.9871
4.81833
9.28706
5.6456
5.49885
-16.1911
-12.9541
7.13339
-14.0357
-6.65302
12.0222
12.3004
10.209
11.0676
-11.148
2.3293
2.5257
1.90692
7.25008
7.09871
7.78721
7.17994
7.63822
4.0011
10.1987
5.89276
-3.10438
0.0524632
0.721636
-0.326531
-15.2199
12.9163
-2.52736
3.7418
3.96697
-11.1617
-14.8544
23.4985
-13.315
-14.5528
15.3204
9.07753
-3.32933
2.73612
-2.5753
-3.73688
2.99706
9.19364
1.56722
-14.9003
3.32331
1.90842
0.221657
0.606834
12.8926
12.879
-11.1878
1.73057
-4.00558
-3.46397
2.92228
-4.71086
-13.2665
8.99941
1.00568
1.46731
10.4121
10.3656
5.85276
6.20105
-0.0886233
0.296918
0.803281
0.0396712
-0.334712
13.7549
-2.36276
14.8856
14.5227
15.0944
-5.80063
-6.46169
-7.63075
6.80532
-4.16591
10.0924
-3.96867
-2.89167
-4.46923
2.42257
-20.4258
-5.4166
7.56334
8.40343
8.07685
11.8466
11.2555
10.8218
7.64704
7.46286
-13.1211
5.47043
10.4499
9.90798
-5.2993
-29.0673
7.98946
-19.4267
-15.1879
3.27738
3.83867
3.29981
3.43763
-13.0585
3.43555
1.04431
1.48634
10.7269
10.1246
2.17064
-2.13252
-2.64923
0.823558
1.2207
-12.1344
-11.1202
2.59917
1.91137
9.6181
8.73126
8.42249
4.19396
4.75409
7.50339
6.09511
5.62833
6.97786
6.65702
6.13986
5.88283
6.77621
7.99094
3.2703
2.88525
3.07732
-3.36714
10.7374
6.11465
6.57461
9.01283
-3.9233
14.1268
1.2338
1.43805
-14.5249
-0.832028
-0.470549
-1.17953
-13.3596
-13.0845
-2.57911
3.50495
2.96952
-1.23084
-0.481254
13.8529
7.44743
2.88998
3.50407
-1.80723
-18.2393
7.02513
11.1218
11.2095
7.02653
7.0764
-0.738504
0.0296757
-0.526391
0.540703
0.977577
4.65692
11.5131
10.7839
4.46889
13.129
13.751
13.6231
10.0003
10.2083
4.53357
10.059
4.07367
4.54948
-1.19002
-0.32701
8.42914
7.5309
2.90498
3.31075
8.54752
9.18516
-4.80518
2.28639
1.9089
2.01794
5.06627
-14.4148
-6.94213
4.66409
5.28853
-0.52689
-0.202477
-1.15483
6.0534
9.69008
9.55025
22.7853
22.8429
23.0068
9.19354
9.57319
9.33424
8.31966
10.0951
9.58189
10.2841
2.69105