/*--------------------------------*- C++ -*----------------------------------*\
  =========                 |
  \\      /  F ield         | OpenFOAM: The Open Source CFD Toolbox
   \\    /   O peration     | Website:  https://openfoam.org
    \\  /    A nd           | Version:  6
     \\/     M anipulation  |
\*---------------------------------------------------------------------------*/
FoamFile
{
    version     2.0;
    format      ascii;
    class       surfaceScalarField;
    location    "500";
    object      phi;
}
// * * * * * * * * * * * * * * * * * * * * * * * * * * * * * * * * * * * * * //

dimensions      [0 3 -1 0 0 0 0];

internalField   nonuniform List<scalar> 
44611
(
1.5265
-2.14996
0.623451
1.5265
1.44626
-1.44626
1.93989
-0.493634
-1.31908
-0.707447
2.02652
-1.31908
-0.0922976
-2.17956
2.09388
-0.567383
1.29717
-1.29717
0.180701
1.85441
-2.17635
0.730099
2.37683
-0.340697
0.413193
-1.73227
-0.79835
-1.20324
0.79835
1.29554
-0.553451
-1.33896
0.553451
0.743717
-0.595238
-0.824385
0.824385
-1.17127
1.35197
-0.00982518
1.28941
-1.27958
-0.136781
-1.86512
2.0019
1.52664
-0.215938
-1.3107
1.22099
-1.22099
-1.10307
1.10308
-1.51066
1.51066
-1.19292
1.19292
1.50617
0.0204702
-1.91998
0.409321
-0.920545
-0.785842
1.70639
-1.62799
-1.26838
1.26838
0.125336
-1.42246
1.29713
-1.49131
1.49131
-1.27784
-0.22225
1.50009
-1.37113
1.37113
1.65347
-0.142812
-0.460557
1.50899
-1.04844
1.72358
-0.50259
1.32774
-0.212593
-1.11515
-0.702282
1.10084
-0.398557
1.18676
-1.45808
0.271322
-0.880867
0.880867
-1.14566
1.03911
0.106543
0.955306
-0.955307
1.19465
-1.33144
-2.28674
0.813786
-0.813787
1.01698
-1.23292
1.83077
-2.04671
-1.61043
-0.623413
-0.821123
-0.789307
-0.899467
0.899467
-1.04042
1.0306
1.93007
0.0910796
-1.46221
0.102743
-0.298391
1.2148
1.16203
1.73227
0.165312
0.533599
-1.21865
2.03977
-1.4622
-0.980432
-0.477644
1.30434
-1.30434
0.904768
-0.419051
-0.485715
1.32932
-1.14576
-0.183565
-0.795343
-0.636433
1.43177
0.00106695
-0.0776792
0.0766124
1.67841
-0.389004
-1.69822
-0.166905
-0.356134
0.910321
-0.554185
-0.0371426
0.0435723
-0.0064297
-0.134379
-0.613299
0.747676
-1.16366
0.461378
0.011579
0.0580492
-0.0696281
-0.0315207
0.00721377
0.0243069
0.855376
0.211855
-1.06723
-0.00227336
0.00227345
1.47482
0.524708
0.240287
1.23454
0.798065
0.880347
-0.0221652
-0.0093554
1.23225
-0.504909
-0.727341
0.916689
0.315561
-1.07171
-0.626502
-0.263311
-0.8084
-0.982635
-0.47832
-0.9112
1.38952
0.00391727
-0.0410599
-0.0087312
0.0331978
-0.0244667
-0.725974
0.851311
-0.646337
-0.28793
0.934265
-1.17324
0.950994
0.000464216
-0.000464225
0.0912766
0.819046
0.996045
0.652143
0.861229
0.468093
1.15826
-0.297028
-0.0755347
0.637547
-0.562013
-0.362427
-0.477834
0.840263
0.410539
-0.741288
0.330749
1.14018
0.859814
-0.744459
0.755941
-0.0114834
-0.792315
1.06364
-0.888552
0.200054
0.6885
-0.888978
-1.12027
-0.845908
-1.44083
1.10922
0.337757
-1.44698
0.925827
-0.0704493
-0.199853
0.744755
-0.544901
-0.958462
-1.08825
-1.43678
-0.848523
-1.10701
-1.61372
0.765193
-0.867292
1.27661
-0.345558
0.808851
-0.463293
-0.982184
0.173784
-0.417626
-0.535885
0.953513
-1.30697
0.889344
-0.265921
0.832313
-0.566393
-0.834917
-0.0762834
0.75603
-0.617133
0.828989
-0.891861
0.593471
0.0480518
-0.0364729
0.0350565
-0.0437876
0.59742
-0.810013
0.849556
-0.684244
-1.49426
0.683343
-0.791917
0.10857
0.810915
-0.708173
0.898312
-0.0901449
-0.808165
-1.39711
0.000883665
-0.000883688
0.000883502
1.07186
-1.07185
1.07385
-1.07385
-1.15403
1.36211
-0.208083
0.628841
-1.08304
0.454197
-0.296443
1.37029
-0.899195
0.580575
0.31862
-0.928504
0.0293103
0.825005
-0.622535
-0.202467
0.0296639
0.33392
-1.12623
-1.25798
1.25797
-0.44073
1.35742
-0.109604
-0.460158
0.00552747
0.454631
-0.151265
-0.308893
-0.638412
0.487148
0.37351
1.02565
1.40231
0.616473
-0.0232074
0.974201
-0.0771932
0.928505
-1.24953
0.357175
-0.835008
-0.281237
-0.934566
0.332781
0.601784
-1.1213
0.186733
0.0910276
-0.797524
-0.963771
-0.315813
-1.45741
-0.727307
-0.231977
1.72329
1.06515
-1.20148
1.30802
-0.0642374
-0.67705
-1.05532
1.69891
-0.643598
0.0851946
-1.41437
1.3583
1.98175
-0.863174
0.863174
-1.64857
0.785395
-0.00673186
-0.00339513
0.0101269
-0.0240835
0.0302677
-0.00618425
-0.0078795
0.00476876
0.00311068
0.0497667
-0.0578261
0.00805936
-0.00388537
-0.00410398
0.00798935
0.00405133
-0.00793671
-0.0495952
0.00806785
0.0415276
-0.593376
0.296112
0.297264
-0.0642426
0.0511395
0.013103
0.0144697
-0.0624014
0.0479319
-0.00413734
0.00818867
-0.00557391
-0.000146589
0.00572055
0.0175871
-0.00062263
-0.0169644
-0.00224438
-0.00972461
0.0119691
0.00613727
0.00381141
-0.00994869
-0.00134008
-0.00544308
0.00678317
0.00572102
-0.00475066
-0.000970308
0.00829103
-0.00211619
-0.00617485
0.0113399
0.0118602
-0.0232001
0.0340261
-0.0226862
0.00100685
-0.00656306
0.00555621
0.0062053
-0.00519845
0.633461
-0.433406
0.0851907
-0.0392646
-0.0459231
-0.0164024
-0.0192928
0.0356951
0.024634
-0.0429799
0.018346
-0.00450427
0.00450507
-0.00784519
0.00186938
0.00597585
0.0304499
-0.0118464
-0.0186034
-0.0426732
0.00903325
0.0336402
-0.08683
0.0174207
0.0694093
0.00413788
-0.0083864
0.00424852
-0.00900063
0.00622215
0.00277848
0.0999059
-0.0319134
-0.0679895
-0.00185119
0.0541804
-0.0523279
0.0392713
-0.0379487
-0.0013225
0.000660178
-0.0190554
0.0183952
-0.0582752
0.0140157
0.0442596
-0.0399689
0.0540116
-0.0140427
0.00321385
-0.00745217
0.00423834
-0.00575721
-0.0021795
-0.00580826
-0.00695018
0.0127585
-0.00991225
-0.0382994
0.0364491
0.0314235
-0.0697221
-0.00294002
0.00959422
-0.00665419
0.0308809
0.0103681
-0.0412489
0.0179968
-0.00428984
-0.013707
0.00329151
-0.00329152
0.00802836
-0.0273724
0.019344
-0.00776737
0.00449542
0.00327195
0.0544509
-0.0519033
-0.00254619
0.0323001
0.0308407
-0.0631409
0.056591
-0.0242908
-0.00472945
-0.0030379
-0.0192904
0.02128
-0.00198953
-0.0063586
-0.0129318
0.00363168
-0.0105818
-0.00642128
0.00856654
-0.00214525
0.00459319
-0.0077177
0.00312454
-0.0235201
0.0379898
0.0200523
0.0103933
0.00719384
0.0176071
-0.0227672
0.0273152
-0.00454801
0.235284
-0.192745
-0.0425437
-0.00657695
0.0030488
0.00352816
-0.627908
0.339977
-0.0210632
0.0147046
0.0845417
0.462731
-0.547272
0.0570468
-0.071619
0.0145722
-0.00122848
0.00492799
0.0127698
-0.0176978
0.00116064
-0.00116079
-0.0582804
0.473621
-0.415341
0.0129642
-0.00197541
-0.0109887
0.00868557
-0.00397773
-0.00470786
0.00551711
0.00277391
0.00720433
-0.0254706
0.0182663
0.0173843
-0.0205065
0.00312208
0.00921424
0.00817005
-0.0241592
0.0528636
-0.0287044
0.00462483
0.00406074
-0.00284114
-0.00373581
-0.0120713
-0.0148871
0.0269585
0.002512
0.00863783
-0.0111498
-0.00341296
0.00613983
-0.00272685
-0.00705078
0.00363784
0.00593665
0.000203182
0.000240303
0.0148226
-0.0150629
-0.00909958
-0.0283602
0.03746
-0.00933138
-0.0347655
0.044097
-0.426868
0.352312
0.0745571
-0.0339564
-0.0060125
0.0199408
0.0301717
-0.0501124
0.0160454
-0.00328696
-0.0205162
0.0191047
0.00141153
-0.0165645
-0.00395173
0.0247462
-0.0155319
-0.0439529
0.0258193
0.0181338
-0.00171868
0.0068609
-0.0051422
-0.00474159
0.0494111
-0.0446686
0.0497098
0.0423319
0.00708004
-0.00126437
0.0234167
-0.0221525
0.0157153
-0.0154751
0.014451
-0.00567531
0.0206293
-0.0149541
0.00391334
-0.0184835
0.0145702
-0.00909902
-0.00876056
0.0178596
0.00967519
0.00637023
0.000576177
-0.00239033
-0.0267874
0.0202017
0.00658567
-0.0242873
0.0248077
-0.00052041
-0.0510747
0.0450094
0.000482403
-0.0083276
-0.00455364
0.00720094
-0.00264735
-0.0283472
-0.565029
0.0502418
0.0323046
-0.082545
-0.0130698
0.00675477
0.00631507
0.0103471
-0.00691201
-0.00343506
-0.0437134
-0.0206138
0.0643287
0.32045
-0.528078
0.207627
-0.0049205
-0.00499175
-0.0870497
0.219523
-0.132472
-0.919359
0.30606
-0.00543331
0.00616156
-0.00072823
-0.00753085
0.00690824
0.032946
0.00025175
0.0247241
0.00822186
0.0236685
0.00828608
0.0129939
0.0121994
0.00288711
0.0101068
0.000931211
-0.0230964
-0.0160331
0.00631785
-0.0153919
0.0090741
-0.0151118
-0.000921378
-0.00879391
-0.0243959
0.000378988
0.0240169
-0.0380775
0.0136108
-0.245192
-0.181675
-0.0240261
-0.0402167
0.0246075
0.0294041
0.0311932
-0.386165
0.490541
-0.104377
-0.50857
0.497086
0.00158508
-0.00158515
-0.00588816
0.0025261
0.00336207
-0.0668612
0.0231484
-0.00132779
0.0405994
-0.431759
-0.487599
0.166759
-0.598518
-0.551172
0.0635741
0.00107577
0.0298052
0.0248919
-0.0271137
0.00222184
0.0367072
-0.0415738
0.00486652
-0.00712969
-0.0133768
-0.012805
-0.00411759
-0.00925923
0.0561651
-0.139337
0.0831719
0.242011
0.221219
-0.46323
0.342767
-0.100756
0.551968
-0.0161252
0.0187562
-0.00263075
-0.0135782
0.020247
-0.00666861
-0.0297034
0.0390032
-0.0097473
-0.0476698
0.0574171
0.0354384
-0.000382017
0.0256911
-0.0313015
0.0246329
0.00272451
-0.0193201
0.00632159
0.00378768
-0.0101093
-0.0034836
0.00854489
-0.00506133
-0.0419749
-0.000697947
-0.0138401
0.0384744
0.0270551
0.0201295
-0.0471846
0.0354183
-0.0294486
-0.00596969
0.0304985
-0.0294316
0.0319029
-0.0279856
0.00912749
-0.00226389
-0.00686365
0.508195
0.125266
0.581346
-0.0731494
0.885083
-0.416991
0.0875591
-0.00961084
0.000938707
0.00867209
-0.0104446
0.00371273
-0.00940605
0.00657015
0.00283593
0.00172728
-0.0111333
0.0115611
-0.00499092
0.0046922
0.0189448
-0.023637
0.00889125
0.00364787
-0.0125391
0.00913067
-0.0103263
0.00119559
0.00734337
-0.00916453
0.0018211
0.0045396
-0.00909329
0.0125473
-0.0289496
-0.00850567
-0.00632656
0.0148322
0.00575978
-0.0142654
0.00708899
-0.0134155
-0.0202984
0.010943
-0.00442575
0.0301169
-0.00806196
0.0116936
-0.00677027
0.0114625
0.0231561
-0.490667
0.547559
-0.0568925
-0.021395
-0.00374077
0.0251359
0.00134278
0.017602
0.0138613
0.0193313
-0.0658237
0.0464923
-0.0280244
0.047356
0.000859958
-0.00554325
0.00468331
0.0061237
-0.000187051
0.00698367
-0.00573031
0.756559
0.0099961
-0.766554
-0.0516065
-0.51111
0.194253
0.316858
0.0316153
0.00509196
-0.00703742
-0.0309113
0.0245779
-0.0422657
0.0724322
-0.0301667
0.445479
-0.548789
0.10331
-0.0375647
-0.0292575
0.0668224
-0.0710965
0.0335319
-0.355307
0.59394
-0.238635
-0.578958
0.55575
-0.0617423
0.164628
-0.102885
0.106918
0.128363
0.00313909
-0.00304302
-9.60146e-05
0.253077
0.112491
-0.365567
0.258605
0.0175732
-0.0169131
0.0075838
0.0223306
-0.0299144
-0.019444
-0.0102593
-0.0317689
0.0224376
-0.016163
0.0486588
-0.0324956
-0.886247
-0.187464
1.07371
0.570685
0.374213
-0.944897
0.470014
0.287985
-0.757999
0.181178
0.288836
-0.508836
0.617406
-0.465365
0.632123
-0.305815
0.390358
-0.43894
0.361747
0.752106
0.0116358
0.0188141
-0.0188401
-0.00392702
0.0308338
-0.0204658
0.00675028
0.0323978
0.00179748
0.00854962
-0.0073988
-6.50528e-05
0.00746387
-0.00560133
0.00848458
0.503465
-0.040733
-0.0905396
0.445647
-0.355106
0.412926
0.00145638
-0.0023156
0.000859413
-6.40841e-05
0.00232618
-0.00226201
0.0603709
-0.767324
0.706954
0.002248
-0.000232972
-0.00201502
0.159214
-0.103048
-0.0396108
1.17979
0.284727
-0.96262
0.677894
-0.00185424
-0.00264982
0.00261309
-0.0044672
-0.75389
0.338325
0.415565
0.572712
-0.858656
0.495021
0.363635
0.0756185
-0.021438
-0.269076
0.497677
-0.2286
-1.18803
0.551601
-0.00192059
0.00192062
-0.696147
0.6678
-0.00944148
0.00471205
0.779225
-2.0372
0.749844
-0.757782
0.00793812
-0.555713
1.62757
-0.609444
0.696628
-0.0871834
0.385376
0.259721
-0.645098
0.830855
0.00259644
-0.00259643
-0.244146
0.780966
-0.536819
-0.734814
-0.468504
0.801285
-0.623309
0.0323117
-0.0603361
-0.84643
-0.341605
-1.28634
0.823041
0.538661
-0.614196
-1.0382
0.47181
0.0433977
0.463875
0.880788
-1.34466
-0.83214
1.29601
-1.38785
-0.766871
0.347819
-0.685703
-0.0811713
-0.868776
0.0101198
-0.808405
1.33928
-0.814572
0.185253
0.390394
0.00182806
0.0032091
-0.0050372
-0.130822
0.359718
0.21686
-0.902564
-0.364551
0.150853
0.213699
-1.0489
0.623507
0.126337
-0.633627
0.0026966
-0.00289245
0.000195922
-0.954788
0.0290961
0.0714285
0.019101
-0.467405
0.651398
-0.183993
-0.344223
1.48196
-1.82619
-1.00136
-0.105659
0.916161
0.515607
-0.01963
-0.0899794
0.0703495
0.831097
-0.510648
0.363692
-1.69653
1.40009
0.897458
-0.399221
0.208511
0.190711
-0.992853
1.85603
-0.738543
0.538419
0.200124
-0.260513
-0.47803
-0.207458
1.2487
-1.45616
0.0022233
-0.000638357
-0.308137
0.784174
0.0441168
-1.31854
0.197237
-0.520472
-0.0012623
0.00126225
-0.0110224
-0.608587
1.54097
-0.17886
0.612468
0.0630487
0.036857
-0.0267133
0.057554
0.238688
0.113624
-0.160533
0.0106777
0.604983
-0.594986
-0.553376
-0.281631
0.901304
-0.419457
0.00262601
-2.95876e-05
0.645874
0.034074
-0.477037
-0.58782
-0.0354886
-0.899672
0.311852
-0.536036
0.709073
-0.431111
0.544734
-0.712741
-0.263498
0.472008
-1.34546
-1.48828
0.649738
-1.04679
0.0565332
5.76652e-05
-0.254644
0.8325
-0.577856
0.042768
-0.0969098
0.0570479
0.0398631
-0.0533507
-0.0435565
-1.19169
1.05497
0.136722
0.22677
-1.27356
0.828554
-0.363135
0.0310858
0.226611
-0.257696
-0.0843418
0.115428
-0.00755531
0.0214166
0.0156008
0.016177
0.00470239
-0.394187
-0.568433
-0.61805
0.0910886
-1.55329
-0.0236581
-0.060131
0.772507
-1.53529
0.762782
-0.881293
1.6538
-0.756066
0.211663
0.161952
1.2271
1.55329
0.170006
0.048957
-0.0442127
-0.00474384
-0.00294573
1.64293
-1.02645
0.915587
-0.282872
0.00367011
-0.0936494
-0.074872
0.0785422
0.872428
0.201284
0.688864
-1.06107
0.644076
-0.372202
-0.936859
0.475871
-0.650362
0.0369116
0.817878
0.535006
-0.576825
-0.898698
0.321872
-1.08824
0.539325
-0.0467087
0.117058
0.0318337
0.147262
-0.00449668
0.00418521
0.000311452
-0.00266863
-0.142693
-0.570047
-0.387885
0.0178772
1.58942
1.08683
0.00273054
-0.0060646
0.00333402
-0.00451868
0.00724921
0.00898905
-0.00463496
-0.00435407
0.00141391
0.00757514
-0.00348201
0.00641535
-0.00293332
0.00716344
0.000167687
-0.00733115
-0.00101664
0.0080532
-0.00703657
0.00683343
-0.00624547
-0.000587965
-0.00454826
-0.00189048
0.00643874
-0.000636911
-0.00517926
0.00581617
-0.00428974
0.00201858
0.00227116
0.00264447
0.00657856
-0.00922302
-0.00124219
0.00978188
-0.00853965
-0.00868236
0.00289808
0.00578429
-0.00108058
0.00865506
-0.00757449
-0.0150777
0.0144595
0.000618216
-0.00656312
0.00325549
0.00330762
0.0104922
-0.0111125
0.000620234
-0.01625
0.0112633
0.00498672
-0.0050311
0.00446243
0.000568683
0.00714844
-0.0083906
-0.0176698
0.00227438
0.0153953
-0.00891365
-0.0087561
-0.00681098
0.00240779
0.00440318
0.000915299
-0.00772628
0.00454828
0.00387464
-0.00842292
-0.00675976
0.000312804
0.00644697
-0.00255317
-0.00420659
0.000765797
0.00503621
-0.00580201
0.00918283
-0.00902546
-0.000157359
0.00760377
0.00157906
-0.00828794
-0.00267095
0.0109589
-0.00537015
0.00473324
-0.00143128
-0.00442845
0.00585973
0.00267493
0.00335429
-0.00602922
-0.0066623
0.00592305
0.000739236
-0.00223073
-0.00443158
0.00529999
-0.00785317
-0.0102743
0.00242271
0.00785156
-0.00286645
-0.00740782
0.00183922
-0.00633017
0.00449097
0.00428974
-0.000894125
-0.00339561
0.00393207
0.000357677
-0.015765
0.0283123
-0.00235983
0.0044251
-0.00206516
-0.00713449
-0.000631092
0.00776554
-0.000132528
-0.00700196
0.00185435
-0.00326194
0.0014076
0.0256873
-0.0431798
0.0174929
0.0262642
-0.00704653
-0.0192176
0.00213341
-0.00785251
0.00571908
0.0106816
-0.00110354
-0.0095781
0.00388932
-0.00272547
-0.00116385
-0.00755505
-0.00204118
0.00959623
-0.0131952
0.00912583
0.00406934
0.00416555
-0.0105087
0.00634313
-0.00700309
0.0013779
0.00562518
0.0132321
-0.00348275
-0.00974929
-0.0076516
0.0208837
0.00190813
0.00685608
-0.00876421
0.00358576
0.006867
-0.0104528
-0.00604621
-0.00293311
0.00897933
0.00562362
-0.0114924
0.0058688
0.00744662
-0.00610788
-0.00133873
0.002145
-0.00870908
0.00656407
0.0110574
-0.0227154
0.011658
0.00236229
-0.00701156
0.00464926
-0.0060439
-0.000635565
0.00667945
0.0100435
-0.00614714
-0.00389633
-0.00986382
-7.15675e-06
0.00987096
-0.00758535
-0.00141259
0.00899786
0.00352078
-0.319875
0.316354
0.188167
-0.184646
0.00962123
0.000605784
-0.010227
-0.0012194
-0.00798922
0.00920864
0.000799918
-0.00501334
0.0042134
-0.00765416
0.0052599
0.00239423
0.00118712
0.00884975
-0.0100369
-0.0108414
-0.00423629
-0.00396758
-0.00687381
0.012038
0.0142262
0.00867405
-0.00867424
-0.0046192
-0.00408529
0.0087045
-0.00967802
-0.0048687
0.0145467
0.00600498
-0.00254053
-0.00346444
0.00922144
-0.00834252
-0.000878923
0.0058263
-0.00527613
0.00750586
-0.00222972
-0.00755782
0.00069602
0.00686182
-0.00352225
-0.00403557
-0.00695815
0.00825513
-0.00825514
-0.00132519
-0.00425918
0.00558437
-0.00690651
0.00646074
0.000445762
-0.00119441
-0.00571213
-0.00393623
0.00668448
-0.00274823
-0.00540492
0.00310861
0.00229631
0.00128962
-0.00669454
-0.00459646
-0.00250823
0.0071047
-0.0104988
0.00472693
0.00577186
-0.00801714
0.00837927
-0.000362116
-0.00448464
-0.00353248
0.00042904
0.0171346
-0.0175636
-0.0185215
0.0266757
-0.00815418
0.00500272
0.000718321
0.00730677
0.00112685
-0.00843362
0.00890341
0.00692617
-0.0158296
0.0306794
-0.0430854
0.012406
-0.00812615
0.00910968
-0.00098353
-0.00533254
-0.0105517
0.0158842
0.00758246
-0.00500384
-0.00257861
0.00171941
0.00586306
-0.0040738
-0.00390138
0.00797519
-0.00757647
0.00972147
-0.011825
0.00577877
-0.00497108
0.0104156
-0.00544456
-0.00114329
0.00313029
-0.0019869
0.00547135
-0.00748007
0.00200874
-0.00854228
0.00203642
0.00650586
0.0108662
-0.00425795
-0.00660829
0.00368689
0.00717936
-0.00687917
0.0013389
0.00554032
-0.00631753
0.00618498
-0.00902512
0.00031603
-0.00543936
0.00296792
0.00503633
-0.00800425
0.00474861
0.00385739
-0.00860599
-0.00368219
0.00885174
-0.00516956
0.006981
-0.00817541
-0.00762574
0.00683081
0.000794931
-0.00800568
0.00348699
0.00720744
-0.00290154
-0.0043059
0.0106379
-0.010895
0.000257118
-0.00574559
0.00506885
0.000676634
0.00556082
0.0036304
-0.00919121
-0.00434452
0.0144126
-0.0100681
-0.0152357
0.00632203
-0.00474347
-0.00982079
-0.00573747
0.0155583
0.0127352
-0.022556
0.0388501
0.0122893
-0.00844282
0.00642067
0.00202214
0.00625069
0.000949037
-0.00719973
0.00723353
0.00469933
-0.0119329
0.0274235
-0.0591037
0.0316803
0.0448979
-0.017474
-0.00590541
0.00553803
0.000367379
-0.0217324
-0.0226129
0.0443455
0.108308
-0.013571
-0.0947398
-0.00715654
0.00725897
-0.000102437
0.0275846
-0.00439632
-0.0231881
0.0371834
-0.0095987
-0.00200426
0.00686961
-0.00486534
0.00122808
0.0100528
-0.0112809
-0.00693367
0.000857808
0.00607584
-0.000343304
0.00853436
-0.00819104
-0.00806989
0.012187
-0.00411713
0.0161624
-0.0106273
-0.00553509
-0.00079934
-0.00603933
0.00683865
-0.002477
-0.00445451
0.00693147
0.00443309
0.00505406
-0.00948714
0.00528887
0.00100598
-0.00629484
0.0116597
-0.00779443
-0.00386526
0.00921651
0.00244317
0.00380321
0.00456462
-0.00836783
0.00762492
-0.00307664
-0.000682159
-0.00577714
0.00645929
0.00166883
-0.00674666
0.00507782
0.00926411
-0.0078502
0.00974275
-0.0063523
-0.00339042
-0.00553404
-3.98395e-05
0.00646647
-0.00346036
-0.0030061
-9.66652e-05
-0.00895311
0.00549272
-0.00269046
-0.00421003
0.00690049
0.0102923
-0.0115117
-0.0076614
0.00358761
0.00174849
-0.00707872
0.00533024
0.00588639
0.00739365
-0.00503137
-0.0104971
0.00253313
0.00796396
0.00779906
-0.00528423
-0.00251482
-0.0028748
-0.000841538
0.00371635
0.00097788
0.0041248
-0.00510268
0.00676157
-0.00578367
-0.000728394
-0.00667706
0.00740548
-0.082435
-0.190962
0.273397
-0.0374896
0.0328886
0.00460093
0.00606247
0.000200994
-0.00626346
-0.00238035
-0.00681866
0.00262451
0.00419416
-0.00573557
-0.00728794
0.0130235
-0.00508698
-0.0081446
0.0132316
-0.00533795
0.00921883
-0.00388087
-0.00395488
0.0102463
-0.0062914
0.00548433
-0.00365252
-0.00183181
0.000871126
0.0046132
-0.00248371
-0.00254739
0.000435437
0.00744208
-0.00787751
0.00176709
0.00603386
-0.00780094
-0.000102127
-0.00739923
0.00750135
0.00391812
0.0113253
-0.0152435
0.000221153
-0.00682176
0.0066006
-0.00589983
0.00612097
0.00540938
-0.00812311
0.00271371
-0.00630665
0.00772831
-0.00142168
-0.00109105
-0.00521561
0.00551817
0.00496445
-0.0104825
0.411418
-0.217164
-0.00465351
0.0107111
-0.0060576
-0.0111774
0.00288937
-0.00999024
0.00786841
-0.00573971
-0.00212869
0.00435565
0.00138405
-0.00573969
0.00655555
-0.00555038
-0.00100517
-0.000525082
-0.0071537
0.00767878
-0.000497103
-0.00722711
0.00772422
0.00236725
-0.00854808
0.00618083
-0.00648427
-0.00714538
0.0136297
0.000435486
0.0057409
-0.00617637
0.000244184
0.00539357
-0.00563774
-0.00085979
0.00809335
-0.0105013
0.00292483
-0.00363429
-0.00890015
-0.00719218
0.00620189
0.000990288
-0.00367745
-0.00351473
0.00656192
-0.00663657
7.46565e-05
0.00305112
0.00351079
-0.00593899
0.00863714
-0.00269816
-0.00728678
0.0013478
-0.00466573
-0.00390649
0.00857223
0.0048572
-0.0169066
0.0120495
0.0115332
-0.00783401
-0.00369919
0.0073921
0.00414115
-0.0376739
-0.0119211
0.00625586
0.00263861
-0.00889446
-0.0104412
0.00656962
0.00387157
0.003753
0.00364547
-0.00739846
0.0154308
-0.00746213
-0.00796869
0.0100232
-0.014205
0.00418172
-0.00403524
-0.00442824
0.00846348
0.00174063
-0.0103048
0.00856415
-0.00371759
-0.00734983
0.0110674
0.00922974
-0.00608162
-0.00314812
0.00341687
0.00575334
-0.00917021
-0.00244304
-0.00704765
0.00949069
-0.00419805
-0.0045235
0.00872155
0.00282135
0.00425956
-0.00708092
0.00685464
-0.00789041
0.00103576
0.000946234
-0.00954478
0.00859855
-0.0265743
0.0197781
0.00679628
0.00719751
-0.0337718
0.00995907
-0.00687937
-0.0030797
-0.00787565
0.00157486
0.00630081
0.00305288
0.00403385
-0.00708674
0.000891793
0.00304371
-0.00393546
0.056988
0.0266438
-0.0836317
-0.029842
0.00935091
-0.00761028
0.00470382
0.00114903
-0.00585285
0.000470967
0.00526137
-0.00573234
-0.0213854
0.0153972
0.00598816
-0.0125379
-0.0088475
0.00209658
-0.00685933
0.00476274
-0.0403056
-0.000943264
0.0075789
-0.00784735
0.000268439
0.00462035
0.00541684
-0.0100372
0.00675888
-0.00215207
-0.00460682
0.0192261
-0.0111977
0.0113949
0.00568675
-0.0170817
0.00162334
-0.00942999
0.00780665
0.0022553
-0.0125804
0.0103251
-0.000171292
-0.0121499
0.0123212
0.00414439
-0.00814815
0.00400376
-0.00914217
0.00338832
0.00575384
-0.00276872
-0.00501507
0.00778378
0.00396619
0.00484493
-0.00881112
0.00726044
-0.00634515
0.00409122
0.00299106
-0.00708229
-0.00829324
0.00396872
0.00432452
-0.00164552
-0.00664773
-0.00636478
0.00846713
-0.00210235
0.0077467
0.000501711
-0.00824841
-0.00166432
-0.00204285
0.00370719
-0.00388421
0.0138134
-0.00992932
0.000858956
0.0110974
-0.0119564
-0.000776839
-0.0100106
0.0107874
0.00739851
-0.0122292
0.00483063
-0.010727
0.00273776
-0.00833641
-0.00239055
-0.0077714
-0.00407967
0.011851
0.00537232
-0.0109266
0.00555422
-0.0074144
-0.00225955
0.00967395
-0.00697896
-0.00862433
0.00186075
-0.00697661
0.00511584
-0.0040385
0.00590791
-0.0216803
0.0111379
0.0105424
0.00682792
-0.000978288
-0.00584964
-0.00534573
0.00617278
-0.000827048
0.014056
-0.0040328
0.00906956
0.00498646
0.011398
0.0104341
-0.00873361
-0.00170065
0.0028488
-0.00357059
0.0349954
0.010724
-0.00434578
-0.00637822
0.00726016
-0.0082345
0.000974305
0.000969077
0.00629108
0.00855974
-0.0083109
-0.000248841
0.00508763
0.00347211
-0.00307725
-0.0154442
-0.0107289
-0.00812685
-0.00731734
0.00923402
-0.00204058
-0.00719345
-0.00775102
0.00739646
0.000354562
0.00372927
0.00440062
-0.00812993
-0.0126908
0.00593201
0.00675872
-0.0054752
-0.00552635
0.0110016
-0.0223385
-0.0202754
0.0426139
-0.0098343
0.00667384
0.00316046
-0.00597756
-0.00385676
0.010876
-0.00808088
-0.00279512
0.00249582
0.00670876
-0.00920457
-0.00741854
0.00640192
0.00170594
-0.00749766
0.00579172
-0.00637266
0.00518541
0.00118725
-0.00182764
0.00338406
-0.00155641
-0.00407537
0.0168203
-0.012745
-0.0255607
0.0214853
0.135241
-0.239618
-0.184634
0.0612141
-0.0193805
-0.0418325
-0.00916941
0.00406897
0.00510048
-0.0100182
0.000848753
-0.00403396
-0.00482711
0.00886109
0.00469188
-0.00872583
-0.0136654
0.0211621
-0.00749668
0.0166022
0.0281861
-0.00702399
-0.0108386
-0.037516
0.0483547
0.0279805
-0.038819
-0.000662961
0.00764664
-0.00527095
0.0237014
-0.0184303
0.0106297
-0.0275521
0.0169225
0.00036534
-0.00784622
0.00748089
0.0167632
-0.00383678
-0.0129264
0.0146986
0.00206467
0.00462477
0.00542513
-0.0100499
-0.005828
-0.00887611
0.0187242
-0.00984806
0.00392684
-0.00640386
-0.00382418
-0.0349623
-0.030124
0.0650877
0.0376476
-0.0588115
0.0211638
0.00412332
0.00667725
-0.0108006
-0.003845
0.00796832
0.00105319
0.00562406
0.00393035
0.00440484
-0.00833519
-0.00395096
0.0088993
-0.00494832
0.00727789
0.0019561
-0.00317629
0.00943215
-0.00335012
-0.00292012
0.00627013
-0.0104564
0.0131508
-0.0026944
-0.00532454
0.0143972
-0.00907268
0.0095719
-0.000722167
0.00690095
0.0109655
-0.000980634
-0.00998484
0.00409244
0.00394895
-0.0080414
-0.0110332
0.00594621
-0.00395693
-0.00654702
0.010504
0.00880847
-0.00373921
-0.00506926
0.00101404
-0.00674349
-0.00356097
0.0103045
-0.00512015
0.00463207
-0.00819304
0.00252509
-0.00775
0.0052249
-0.0055156
0.0080407
0.00579294
-0.00428423
-0.00150869
-0.00799611
0.00350546
0.00449061
0.00743435
0.00126191
-0.00869622
0.00293799
0.00346818
-0.00640617
0.0042276
0.00518758
0.00944945
-0.0116939
-0.00729818
0.00257297
0.00472523
0.0161041
0.024346
-0.0404502
0.0375602
-0.0210273
-0.016533
0.000574082
0.00593144
-0.00650552
-0.00502394
0.00559803
0.00156848
0.00436296
0.0093805
-0.00523611
0.00246054
0.00622279
-0.00868334
-0.000337183
-0.00598036
0.00721636
-0.00180697
-0.00778734
-0.0111798
0.00874777
0.00243208
-0.0105215
0.0101782
0.00814033
-0.00349815
-0.00464217
0.000634492
0.0121007
0.0116919
0.00696363
0.00513707
0.00714088
-0.0100073
-0.00202308
-0.00845173
0.0104748
0.0130004
0.00179722
-0.0147976
0.0195063
0.00780888
0.030136
-0.00366901
-0.00512891
0.00879799
-0.00679627
0.00312726
0.00555486
-0.00618595
-0.0105594
-0.0289068
0.0394662
-0.000180246
0.00754973
-0.00736948
0.010029
-0.00847092
-0.00155811
-0.0159982
-0.00103936
0.0170375
-0.0453526
0.0198848
0.0254677
0.0360129
-0.0276978
-0.00831519
0.0037204
0.00608602
-0.00980643
0.014393
-0.0201305
6.56461e-06
0.00727135
0.00586424
-0.00585766
0.00462268
0.00264867
0.0035817
0.0044715
-0.00455554
0.00813724
-0.00190051
0.00637201
0.00954486
-0.0220827
-0.00749083
0.00669151
-0.00562155
0.00350974
0.00211181
0.000629139
0.0218357
-0.0260485
0.00421278
-0.00652763
-0.00397112
0.00498091
0.00185252
0.00574671
0.00714139
0.00736979
-0.00566385
-0.00638516
0.00638512
-0.0351483
0.010485
0.0246631
0.00612041
-0.00802067
0.00190027
0.00798117
-0.00163853
0.00425696
-0.00261841
-0.00172723
0.00172703
0.0207437
0.0168164
-0.00702342
0.00640664
0.000616781
0.032716
-0.00331193
0.00565428
0.00431725
-0.00997153
-0.0029322
0.00858648
0.00225836
0.00725597
-0.00951433
0.00712955
-0.00337653
0.00862563
-0.00912272
0.0366755
0.020165
-0.0568404
-0.00496181
-0.00469497
0.00965682
-0.0135609
-0.00243728
-0.00119076
-0.0123701
0.014459
-0.0168963
-0.00673778
0.0016089
0.0251701
0.00349716
-0.0286673
0.00866903
0.016501
-0.0257562
0.0292534
-0.00153435
0.00753191
-0.00599756
0.00176572
0.00611641
-0.00788212
-0.00372193
0.00372185
-0.00486331
0.00748954
-0.00262621
-0.00697951
-0.0355571
0.0166753
0.0188817
-0.0137214
-0.00888543
0.00585991
-0.00586022
-0.00345668
0.00345671
-0.00408517
0.0128784
-0.00879323
-0.00182742
-0.00766275
0.00949012
-0.00978266
0.00669913
0.00308358
0.00112251
-0.00641108
0.0052886
0.00681359
-0.00157009
-0.00524349
0.0079361
-0.0105696
0.00854652
-0.00706954
0.00762339
-0.000553865
-0.00408698
-0.00270927
0.00596328
-0.00991817
0.00278346
-0.00278358
0.00424166
0.00338326
0.0048708
-0.0115468
0.00299018
0.00855659
-0.0150037
0.000527911
0.0144758
0.000721244
-0.0105146
0.0097934
-0.00634035
-0.00918802
0.0155285
0.00552678
-0.00385795
0.00272333
-0.00577209
0.00304875
0.0265554
-0.00189635
-0.0246591
0.0230504
0.00513566
-0.00733823
0.00762724
-0.000289041
-0.0109285
0.00519288
-0.0136951
0.00276663
0.0131513
-0.00795844
-0.00944026
1.02716e-05
-0.0057384
-0.00370187
0.000404197
0.00579769
0.0163189
0.0110234
-0.0273423
0.00306871
0.00631332
-0.00938203
0.00741308
-0.0161715
0.00875848
0.00425762
-0.00425821
-0.009132
0.00254111
0.00659091
0.00280207
-0.00754785
0.0047458
0.0026908
-0.00269085
0.00753746
-0.00504166
-0.0119593
0.0107626
0.00119676
0.00315919
-0.00774871
0.00458953
-0.0125496
0.0148239
0.00339992
-0.00724678
0.00384686
0.00644872
-0.00582286
0.00541196
0.000410896
0.00606771
-0.00027875
-0.00578898
-0.0197199
0.0236794
-0.00395945
0.0198651
0.000733739
-0.0205988
0.00989164
0.00456786
0.00972035
0.011981
-0.00324308
-0.0099521
0.0047135
-0.00795658
-0.000442713
-0.00950939
-0.00363992
0.00582063
-0.00218072
0.00354034
0.0026164
-0.00615674
-0.00542626
0.00542626
0.00418462
0.00385782
-0.00804243
0.00191539
-0.00191542
0.00641435
-0.0101536
-0.00756886
0.00837173
-0.0008029
-0.26506
0.0590728
0.205988
-0.164195
0.244653
-0.0804578
-0.429255
0.303726
0.00992505
-0.00192691
-0.00799814
-0.00697552
0.00105064
0.00592488
-0.00381633
-0.465267
0.323372
0.141896
-0.154738
-0.310529
-0.00175872
0.0109752
-0.000842333
-0.0141613
0.0136427
-0.00782726
-0.00581543
0.0128004
-0.00796605
0.00711797
0.000848074
-0.00508494
-0.00676953
0.0118545
-0.00638635
0.00570419
-0.00682116
-0.000580841
0.00740202
0.0221769
0.00271494
0.00133703
-0.0210569
-0.0254707
0.0319352
-0.00646452
0.0117127
-0.00558084
-0.00281822
0.0028182
0.00237254
0.00623768
-0.00861019
-0.00552162
-0.00303637
0.00855803
-0.00314906
0.00320134
0.00276607
0.00399282
0.0063064
-0.0109216
0.0131352
-0.00221359
0.00126679
0.017787
-0.0190538
0.0220812
-0.0208145
-0.000783291
-0.00476541
0.0055487
-0.0311811
0.00781202
0.0233692
-0.0264179
-0.00476324
0.0319577
-0.0241456
0.00576017
0.00300862
-0.00876876
0.00709909
0.00847998
-0.0118845
-0.000937504
0.012822
-0.0100055
-0.00187894
-0.00517801
0.0567055
-0.0515276
-0.0135431
-0.0216051
-0.00594914
-0.00193035
0.00136084
-0.00639332
0.00503249
0.000308969
-0.00619103
0.00588206
-0.00580237
0.00611133
0.00390249
0.0131756
-0.0170781
-0.0136556
-0.0042995
0.0179551
-0.0097531
-0.005786
0.00714168
-0.00135568
-0.00483696
0.00635925
-0.000291552
-0.0303475
0.0005553
0.0297922
-0.0132393
-0.0171082
0.0323062
-0.0317508
0.0208333
-0.0197574
-0.0062804
-0.00108914
0.00108877
0.00495084
0.00125447
-0.00127846
0.00622933
-0.0123834
-0.0151687
-0.0176543
0.0013672
-0.00136724
0.0041882
-0.00418835
-0.00243458
0.00243443
0.00583664
-0.00110971
0.00124018