/*--------------------------------*- C++ -*----------------------------------*\
  =========                 |
  \\      /  F ield         | OpenFOAM: The Open Source CFD Toolbox
   \\    /   O peration     | Website:  https://openfoam.org
    \\  /    A nd           | Version:  6
     \\/     M anipulation  |
\*---------------------------------------------------------------------------*/
FoamFile
{
    version     2.0;
    format      ascii;
    class       volVectorField;
    location    "500";
    object      U;
}
// * * * * * * * * * * * * * * * * * * * * * * * * * * * * * * * * * * * * * //

dimensions      [0 1 -1 0 0 0 0];

internalField   nonuniform List<vector> 
29884
(
(7.50217 0.0581616 -1.05604e-16)
(5.34228 0.0252182 9.15118e-17)
(5.41288 -0.11544 5.0617e-17)
(7.11175 -0.0752886 1.67728e-18)
(7.21538 0.104274 -3.17205e-17)
(5.74308 0.155812 7.76097e-17)
(7.91559 -0.122178 -3.33472e-19)
(7.41206 -0.000897649 4.23756e-17)
(4.7035 0.121284 2.39246e-17)
(7.13531 0.0180052 8.05968e-17)
(7.44424 0.00927552 -3.3483e-17)
(7.2017 0.195606 2.5632e-17)
(8.07884 -0.13171 -2.28171e-17)
(7.1843 -0.113626 2.43804e-17)
(7.20632 0.0993013 -3.29298e-17)
(4.44485 -0.0567798 8.53383e-17)
(8.25292 0.0502008 -3.52848e-17)
(6.67926 0.195509 -5.95753e-17)
(6.53086 0.162825 0)
(4.18421 -0.00371125 -1.6566e-16)
(7.80944 0.209222 1.45402e-16)
(4.94078 -0.037866 0)
(8.00618 -0.0619868 -4.63804e-18)
(7.11445 -0.0216282 0)
(7.07105 -0.0129223 0)
(7.597 0.0461073 -2.83749e-17)
(7.86289 -0.0137011 0)
(8.03862 -0.046381 8.57528e-17)
(5.16682 -0.0247298 8.85473e-17)
(5.1764 0.112343 8.42116e-18)
(5.39502 -0.00738963 -2.35879e-17)
(4.80647 0.090001 5.16274e-16)
(8.01127 0.0341608 -2.53108e-17)
(7.43829 -0.0293334 0)
(7.27666 -0.057491 -8.30534e-17)
(7.50772 -0.103968 6.42497e-17)
(5.02384 -0.0382965 9.14647e-17)
(7.53582 0.139015 1.051e-17)
(5.34406 0.14752 -8.84317e-17)
(7.77365 -0.163179 -4.19688e-17)
(5.02487 -0.0544053 0)
(7.05124 0.0724634 2.28695e-17)
(7.59549 0.198845 -4.96185e-17)
(7.22513 0.283963 -3.25561e-16)
(6.98142 -0.0139715 2.01613e-17)
(7.5846 -0.162515 -2.36806e-17)
(8.04553 -0.209326 0)
(7.66608 -0.125982 -7.31384e-18)
(4.80544 0.0343504 -2.40354e-17)
(8.3584 0.0933114 0)
(7.37255 0.125967 0)
(7.18143 -0.0731666 1.11263e-17)
(4.72799 -0.152081 3.62697e-17)
(8.43559 0.025558 1.01702e-16)
(7.22186 -0.0640279 -8.06861e-17)
(7.10752 -0.139194 6.23642e-17)
(4.42189 -0.0181922 1.15791e-17)
(8.00148 -0.0561675 0)
(6.67978 0.0503793 6.45329e-17)
(6.9144 -0.143675 -1.03508e-16)
(7.78379 0.159336 -1.8352e-17)
(7.83373 -0.0113401 2.44712e-17)
(4.71871 -0.100932 0)
(8.14076 0.0550711 -4.41733e-17)
(7.12594 -0.0683827 2.93726e-17)
(7.01331 0.0813824 -6.15202e-18)
(7.45199 -0.0486551 1.00377e-17)
(7.82278 -0.124829 6.73299e-17)
(7.41746 -0.0995315 -4.54169e-17)
(7.32134 0.0686835 6.28336e-17)
(7.24745 0.196854 3.59205e-17)
(7.67222 0.0666348 -9.94511e-18)
(7.51796 0.102111 0)
(5.6318 -0.138759 0)
(7.3206 -0.108252 -5.59124e-17)
(6.92702 -0.0936564 -1.68755e-17)
(8.15235 0.104207 0)
(7.89737 -0.125176 0)
(8.10403 -0.118748 0)
(5.08975 0.0328401 0)
(7.6579 -0.085181 5.79837e-17)
(5.25234 -0.0517423 0)
(7.12014 -0.136169 0)
(7.01066 0.0996702 2.96806e-17)
(6.49667 -0.0509755 -2.04226e-17)
(4.41511 -0.476827 -9.61417e-18)
(7.35859 0.00305288 0)
(7.61695 -0.0352916 0)
(7.27897 -0.114138 4.42474e-18)
(3.56274 -0.802132 1.92202e-17)
(7.20183 -0.213811 0)
(7.90924 -0.246874 -1.96942e-17)
(4.44257 -0.065146 -5.50548e-17)
(3.24246 -0.673209 0)
(7.11184 0.131877 -4.65188e-17)
(1.8472 -0.406462 0)
(6.99609 0.0143904 -7.92468e-17)
(7.00691 0.0136708 1.04945e-16)
(7.47682 0.0593804 3.37632e-18)
(3.28909 -0.509223 0)
(7.01014 0.0400914 5.22616e-17)
(6.93993 0.0776744 1.16822e-16)
(7.67022 0.0111898 0)
(7.76263 0.0137578 -2.58786e-18)
(7.37438 -0.122066 -4.68946e-18)
(8.14412 -0.119677 0)
(3.70843 -0.601143 1.56262e-17)
(3.59787 0.0781515 -3.8736e-17)
(7.10761 0.137883 -5.26931e-17)
(6.96393 -0.355391 0)
(7.39654 -0.226835 0)
(1.72954 -0.24705 4.77092e-17)
(7.27103 -0.0834879 2.78654e-18)
(7.14866 -0.11321 0)
(7.32553 -0.122246 -2.29844e-18)
(6.96745 0.116626 -2.98238e-17)
(7.15529 0.121186 0)
(7.15687 -0.245303 0)
(6.73797 -0.0825529 0)
(6.61637 -0.335064 4.52287e-17)
(7.00367 0.00626246 0)
(6.8371 -0.326366 2.91731e-17)
(7.30856 -0.17227 4.54181e-17)
(6.77142 0.20599 0)
(7.05196 -0.0278514 1.33327e-17)
(7.0681 -0.193146 -6.20034e-17)
(7.81816 -0.273234 5.17285e-18)
(7.96795 -0.0426067 1.60073e-17)
(6.88812 -0.221685 -4.98045e-18)
(6.97495 0.144226 0)
(6.754 0.176261 1.41271e-17)
(6.93403 0.126257 -1.59012e-17)
(6.98295 -0.105113 4.12183e-17)
(8.15495 -0.118754 0)
(6.83901 -0.0846917 0)
(7.49403 -0.0911189 0)
(7.64596 0.238669 0)
(7.3608 -0.118381 6.49752e-18)
(7.54388 -0.151059 -1.70271e-17)
(7.54459 -0.138406 3.43312e-17)
(7.40835 -0.122118 0)
(7.26379 -0.0225826 2.74536e-17)
(7.68315 0.137241 -2.0153e-17)
(7.76095 -0.231066 -9.64059e-18)
(8.00325 -0.187464 -1.0498e-17)
(8.02875 -0.212462 1.03445e-18)
(7.77757 -0.180236 1.95199e-17)
(7.48013 0.182065 5.88996e-17)
(7.80003 0.119898 -4.98363e-17)
(7.73904 0.21101 5.49663e-17)
(7.62815 0.128843 0)
(4.19417 -0.0871733 -2.51641e-17)
(3.83264 0.0531805 0)
(7.91299 -0.151623 -1.46496e-17)
(7.8356 -0.225163 2.58336e-17)
(7.8981 -0.168963 0)
(7.93726 -0.194132 -7.9076e-18)
(7.81817 -0.218442 0)
(7.87193 -0.1268 0)
(7.90871 -0.186569 0)
(7.86268 -0.161176 -2.66487e-17)
(7.02 0.024498 3.75286e-17)
(6.93583 -0.0533025 -3.80659e-17)
(7.53109 0.188215 -9.44178e-17)
(1.02591 -0.0642637 -1.26196e-16)
(0.976492 -0.00851932 1.00259e-20)
(4.93341 -0.0755603 0)
(4.73325 -0.00613015 0)
(7.0077 0.0449465 -4.52792e-17)
(7.99272 0.195728 5.43868e-17)
(7.37266 0.0507189 -1.57884e-16)
(6.97913 0.110171 0)
(6.97236 0.0796783 0)
(6.80433 -0.0534989 -1.58262e-17)
(6.98768 -0.0589221 0)
(7.0034 -0.195519 8.25013e-18)
(6.80392 -0.281008 -7.55675e-17)
(5.18361 -0.0321764 7.77141e-17)
(7.06994 0.143316 -4.19879e-17)
(7.24342 -0.214865 -7.87286e-18)
(6.9814 -0.30368 -1.71752e-17)
(6.26698 -0.376812 -3.46894e-18)
(6.26582 -0.28002 4.32012e-17)
(6.3921 -0.213716 8.32445e-18)
(7.16983 -0.107122 6.47422e-18)
(7.29678 -0.136752 0)
(7.06507 -0.0218795 -7.23146e-17)
(6.98503 0.00142658 4.11817e-17)
(7.2994 -0.257171 -4.59429e-18)
(6.96498 0.114654 3.28451e-17)
(7.38526 -0.185407 0)
(6.52936 -0.0763682 2.79629e-17)
(6.38772 -0.128684 -7.97422e-18)
(7.26701 0.168503 7.56229e-18)
(7.36722 0.134916 -2.82839e-18)
(7.03051 0.161779 0)
(6.83611 0.190819 0)
(7.37599 0.0567059 2.86566e-17)
(7.61727 -0.0163365 -9.84523e-18)
(7.46902 -0.128143 0)
(6.7577 0.0307739 0)
(7.58402 -0.0297643 0)
(7.52956 0.0615563 3.67971e-17)
(7.1677 -0.00896286 -3.80571e-17)
(7.36898 0.0729421 -1.05267e-16)
(6.53641 -0.308852 0)
(7.43892 -0.0796513 0)
(7.20716 -0.115355 0)
(7.33452 -0.0433516 0)
(7.87913 -0.124096 0)
(7.71364 -0.123599 0)
(7.90066 0.0626978 0)
(8.10568 -0.0827361 0)
(4.76994 -0.0771053 0)
(7.08062 -0.0972206 0)
(4.98531 1.34293 -1.71644e-19)
(6.16269 2.73732 -6.23221e-19)
(4.56496 -0.0373524 9.18532e-19)
(6.71094 2.78403 0)
(2.73175 -1.53119 -1.42061e-20)
(2.66093 -1.50973 1.45702e-17)
(6.67274 -3.76692 5.65178e-18)
(6.78074 0.33634 0)
(6.75359 2.39189 0)
(4.06286 -0.855925 -2.20534e-17)
(2.61239 -1.58571 -1.24879e-20)
(4.13892 -1.00973 1.54736e-18)
(2.95958 -0.540552 0)
(2.60238 -6.03766 4.48899e-18)
(6.97978 -1.70126 0)
(4.46643 -4.42834 -6.78213e-20)
(4.16832 -1.02365 1.70672e-18)
(4.40822 -0.332551 6.21518e-21)
(5.69411 -3.86116 -1.9062e-18)
(5.77389 -3.83229 -1.87473e-18)
(4.54266 -0.0208323 3.07288e-19)
(4.56258 0.0253559 -3.78993e-19)
(6.71398 0.248127 -8.85126e-17)
(3.68253 -0.18905 0)
(4.96809 -3.65839 -1.92566e-18)
(5.20149 -3.46116 0)
(1.97668 -1.07128 0)
(4.87955 0.979138 -7.90245e-19)
(5.33955 -4.06889 3.30825e-18)
(5.60326 -3.0414 -1.82719e-18)
(6.41156 1.9859 0)
(3.79861 -1.81872 1.65572e-18)
(4.32734 -0.639954 0)
(5.38284 -1.16805 2.86494e-18)
(6.26074 -1.97049 -1.10096e-17)
(5.81788 -3.22392 -3.49415e-18)
(6.12289 3.04054 4.06424e-20)
(6.32413 2.46092 1.7967e-18)
(6.2882 2.57437 -2.23525e-18)
(2.58505 -1.18161 0)
(2.63432 -1.38488 7.12706e-20)
(2.88035 -1.47936 -1.89424e-17)
(2.79232 -1.43206 -2.28465e-20)
(5.86647 -1.76854 -5.83585e-18)
(5.61535 -1.6569 4.88898e-18)
(6.4683 -2.45732 0)
(6.09336 2.66534 2.67599e-18)
(5.18269 -4.39059 -1.43888e-18)
(1.88718 0.798012 -5.34772e-17)
(5.92898 3.01075 0)
(3.94139 -1.6512 0)
(6.55557 -3.17461 1.19707e-17)
(6.51605 2.11581 2.16326e-18)
(6.57373 2.16818 5.00751e-19)
(3.98596 -1.55125 0)
(6.2436 2.80532 -1.11887e-19)
(6.23094 2.81402 1.23031e-19)
(2.91463 -1.38948 9.53996e-18)
(3.68124 -2.37064 2.50805e-19)
(3.62509 -2.59329 1.9814e-18)
(3.82346 -1.05325 4.48696e-17)
(3.61451 -1.01324 0)
(2.97824 -0.677605 0)
(3.08382 -0.745157 5.25663e-19)
(5.16087 -3.88448 1.52583e-18)
(4.01275 -0.332762 0)
(4.15186 -0.930443 -3.87469e-19)
(6.86461 -0.449477 2.29363e-17)
(6.2233 2.80857 0)
(6.55609 0.209667 5.99468e-17)
(6.29974 2.31857 0)
(6.34914 2.37684 0)
(5.71501 -4.59475 0)
(0.866876 -0.429427 9.38826e-17)
(6.86734 0.328945 -8.44469e-17)
(2.82014 -0.36786 -1.01086e-17)
(4.30859 -0.579579 1.32259e-18)
(4.38756 -0.403223 -6.25404e-19)
(5.16318 -4.10188 -8.82593e-19)
(5.87658 -4.43197 -7.87766e-19)
(5.86068 -4.3632 -2.42038e-18)
(6.1685 2.56331 3.75768e-18)
(4.27319 -0.666036 -2.15743e-18)
(4.18934 -0.840788 8.11452e-19)
(5.34288 -3.83075 -1.4885e-18)
(6.56682 -3.94981 0)
(4.04004 -1.22353 0)
(4.05885 -1.16352 0)
(3.98955 -1.32547 0)
(3.01088 0.468562 -1.79764e-17)
(3.68567 -1.7084 9.61541e-18)
(4.04872 -1.31128 0)
(6.07585 0.130915 -1.79214e-17)
(6.24661 2.55874 -5.82053e-19)
(6.2145 2.47523 -2.10082e-18)
(6.26586 2.48571 -2.33831e-18)
(6.19515 2.54879 -4.81415e-18)
(2.87022 -1.62792 -2.13246e-17)
(5.00182 -4.22287 5.64236e-19)
(5.06466 -4.28218 -1.28308e-18)
(5.88934 -4.31308 3.83441e-18)
(5.79641 -3.47131 0)
(4.20763 -0.830896 1.44785e-18)
(6.63673 -2.81731 -3.69392e-18)
(6.57388 -3.00043 -8.12748e-19)
(6.47864 -2.50138 3.01481e-18)
(3.26237 0.151418 0)
(3.1269 0.384378 -1.79081e-17)
(3.11046 0.180554 0)
(6.02566 -4.41463 -1.37268e-18)
(6.23187 2.7825 1.31075e-19)
(2.96809 -1.89341 -1.43519e-17)
(2.8905 -1.70061 1.89232e-17)
(2.99398 -1.71156 2.28829e-17)
(2.83644 -1.8884 6.6572e-18)
(6.36195 2.65946 1.04678e-18)
(6.42867 2.62112 -1.22388e-18)
(6.40122 2.59583 2.87246e-19)
(6.40487 2.67415 3.29114e-19)
(4.90367 1.08223 1.54219e-18)
(4.94113 1.30392 -9.01894e-19)
(6.80247 0.29986 -2.79507e-19)
(5.69957 -0.767205 -2.61407e-17)
(2.79322 -0.700536 -2.05279e-17)
(2.77468 -0.938493 0)
(6.34767 -2.76542 -4.56335e-18)
(7.53259 -0.454221 -3.99487e-17)
(2.76611 -1.31502 5.94919e-18)
(5.72344 -0.884133 -2.25918e-18)
(7.1265 -0.262291 9.93087e-18)
(2.76487 -0.558208 0)
(2.85523 -0.541416 1.94347e-17)
(2.82373 -0.471898 6.33447e-20)
(2.80338 -0.597129 -5.61099e-18)
(3.47821 -0.0431135 3.30287e-19)
(3.47489 -0.219486 0)
(3.27169 0.0198845 -7.03992e-18)
(6.24793 2.79301 0)
(6.24182 2.78438 0)
(6.26073 2.78029 3.00478e-19)
(3.18405 -0.408336 0)
(3.02439 -0.421495 3.37601e-17)
(2.97593 -0.0783269 0)
(2.99193 -0.297247 -3.6655e-17)
(3.04897 -0.148786 0)
(3.29242 0.614532 -6.64895e-18)
(3.52962 0.310496 3.89222e-17)
(6.15032 0.183037 -6.46963e-17)
(6.75728 2.28395 -2.7303e-19)
(6.2834 2.61503 8.2126e-19)
(6.32747 2.6532 -1.61301e-18)
(6.66575 -0.663195 6.79461e-18)
(6.72429 -0.428325 0)
(1.09047 0.400075 0)
(2.61342 -0.524647 -8.44418e-18)
(6.19292 -2.88849 0)
(5.92011 -3.09076 -1.05066e-17)
(7.11916 -0.282074 -2.30302e-17)
(7.13965 -0.264558 1.81931e-17)
(7.07725 -0.324083 0)
(6.08614 2.72097 1.45081e-18)
(6.10189 2.79661 7.34139e-19)
(6.10738 -3.48505 3.81849e-19)
(5.91918 -4.44788 0)
(5.99237 -4.43673 1.77656e-18)
(5.93341 -4.52496 1.92327e-18)
(5.15403 0.263963 1.06406e-16)
(6.46868 -0.514339 -6.03073e-17)
(6.48496 -0.642439 0)
(6.56458 -0.438072 -2.6532e-17)
(5.4278 -3.62344 0)
(5.60105 -3.62449 3.81374e-18)
(5.52204 -3.71581 2.13951e-21)
(5.46996 -3.57683 -3.62705e-18)
(4.10511 -0.322378 0)
(3.86134 -0.0907124 -2.2178e-18)
(3.78497 -0.294018 -3.39918e-17)
(4.11909 -0.179823 0)
(5.71515 -3.66664 1.89763e-18)
(5.79302 -3.76129 1.77256e-19)
(5.81073 -3.58492 -1.40305e-18)
(4.79232 0.630077 1.30788e-18)
(4.72725 0.474165 0)
(5.52673 -3.14984 0)
(5.32493 -3.3589 -3.47229e-18)
(3.82149 0.45274 -5.36528e-19)
(3.52588 0.813453 -8.68723e-18)
(4.17504 -0.514801 -5.38402e-19)
(3.92625 -0.618773 1.89143e-17)
(4.07274 -0.643421 -1.20441e-17)
(4.09861 -0.410256 1.09094e-17)
(3.41621 -3.32686 -1.44684e-18)
(6.66203 0.270978 1.07592e-17)
(6.64886 0.240532 0)
(6.87399 0.150851 0)
(6.80573 0.185772 6.08719e-18)
(4.99692 1.66553 0)
(4.99678 1.47141 0)
(2.80152 -0.158624 -2.4105e-17)
(2.7919 -0.0434293 1.71404e-20)
(2.72482 -0.187871 1.10926e-17)
(3.26755 -1.21151 0)
(6.43179 -2.33492 0)
(4.87382 2.1757 -6.0082e-20)
(5.00172 2.05521 -1.19233e-18)
(4.94401 1.41499 -8.87336e-19)
(4.88315 -3.7836 0)
(3.05345 -1.14929 9.45696e-18)
(3.12878 -1.0153 1.86052e-17)
(2.92742 -1.11061 0)
(3.44647 -0.474809 0)
(3.69366 -0.306235 4.39938e-17)
(3.52908 -0.271129 -5.41514e-18)
(3.67057 -0.470346 -3.21951e-17)
(3.01244 -1.41557 1.85964e-17)
(3.16436 -1.29742 0)
(3.07317 -1.24942 -1.96103e-17)
(3.13368 -1.42651 0)
(7.63338 -0.402991 1.4173e-17)
(3.56127 -1.36965 0)
(3.36505 -1.23753 0)
(3.53186 -1.1758 0)
(3.37454 -1.39142 1.57125e-17)
(6.04982 -2.20143 0)
(6.20916 -2.06467 -5.9532e-18)
(3.94582 -1.46048 -4.62915e-19)
(3.976 -1.37177 0)
(3.94667 -1.45839 4.22181e-19)
(3.98116 -1.37926 0)
(6.88637 0.0818988 3.78914e-19)
(6.85031 0.0135841 0)
(6.49558 0.33763 3.51881e-17)
(6.03175 -3.42021 1.35112e-19)
(5.89659 -3.28067 3.14572e-18)
(6.06118 -3.31698 2.78315e-18)
(5.87007 -3.40686 3.43282e-18)
(6.89452 2.24566 0)
(7.2704 0.467414 -2.84268e-17)
(4.37282 -1.51853 2.01761e-17)
(4.46817 -1.23062 -3.679e-17)
(6.99792 -0.376062 1.87971e-17)
(7.09116 -0.296011 -1.26578e-18)
(7.01427 -0.344456 -1.2369e-17)
(6.86217 1.46263 2.09603e-18)
(4.005 -0.234186 -3.73447e-17)
(2.03297 -0.201082 0)
(6.02641 -0.491983 -2.52236e-17)
(6.1526 -0.481062 5.81213e-18)
(6.11585 3.09384 -2.89931e-19)
(5.51147 -3.91032 0)
(5.51932 -3.79489 -4.51647e-20)
(5.60336 -3.83039 2.20203e-18)
(5.45864 -3.84401 1.99289e-18)
(4.1529 -1.20342 0)
(4.37454 -0.896465 -6.32168e-18)
(4.18322 -0.941196 0)
(4.37672 -1.13738 4.04084e-17)
(6.90173 0.119334 0)
(6.91242 0.0819545 1.46458e-17)
(6.90042 0.100005 0)
(7.00332 0.077367 5.60511e-19)
(6.99992 0.0976268 -1.83909e-17)
(7.56921 -0.193602 0)
(7.23673 -0.241268 -5.29943e-18)
(7.36979 -0.239164 5.4607e-18)
(7.41447 -0.193489 0)
(6.61923 0.195206 0)
(6.73447 0.0981926 -7.51364e-17)
(6.70174 0.173285 5.38797e-18)
(6.6333 0.142456 4.63854e-17)
(5.30455 -4.01465 -3.59626e-18)
(5.22897 -3.90816 0)
(5.2186 -4.03275 0)
(5.3201 -3.91861 0)
(6.14229 2.66196 1.37777e-18)
(6.16938 2.70709 -7.74075e-19)
(6.18166 2.62051 1.11866e-18)
(2.77308 -1.02066 0)
(2.69165 -1.12773 7.21893e-18)
(2.69901 -1.04811 -7.60524e-18)
(2.77818 -1.11855 -5.84412e-18)
(6.48884 0.225086 -9.98554e-18)
(6.36195 0.258407 3.90357e-18)
(6.43378 0.197744 9.96776e-17)
(2.53898 -0.330995 -1.85998e-17)
(2.03503 -0.0273852 2.46777e-17)
(6.93972 0.156998 0)
(2.11048 -0.208859 -1.0184e-18)
(5.31071 0.133966 -1.27748e-16)
(6.99586 0.0222405 5.22228e-17)
(7.02027 0.0808049 2.23247e-17)
(2.70135 -1.33511 -5.6526e-18)
(3.00824 -1.40572 9.83928e-18)
(7.01158 0.124143 6.50708e-17)
(7.01036 0.089881 7.07932e-17)
(7.00901 0.0975088 -2.32977e-17)
(6.95527 0.216406 9.13341e-17)
(6.28816 -1.92207 1.17286e-17)
(7.00288 0.25783 0)
(5.88692 -0.0986672 1.53586e-17)
(1.74741 -0.290843 -3.16016e-20)
(2.34068 -0.349872 0)
(6.76744 0.249237 -6.174e-17)
(3.99247 -1.48284 0)
(7.45958 0.0184193 -4.80651e-17)
(6.99913 0.152505 4.84729e-17)
(6.82061 -0.0142104 0)
(7.87912 -0.428515 0)
(7.35554 0.354224 0)
(7.34424 0.431658 3.1934e-17)
(1.80838 0.531297 1.82521e-17)
(7.75166 -0.292557 7.77201e-17)
(7.68847 -0.355885 0)
(7.14544 0.187232 -3.98881e-18)
(6.84342 0.296964 0)
(6.31546 -2.08865 6.11999e-18)
(5.95189 -0.0860227 1.35647e-17)
(7.19547 -0.18036 -2.51742e-18)
(7.13811 -0.235304 3.37965e-18)
(7.17583 -0.211814 4.41476e-19)
(7.59422 -0.232905 0)
(6.62672 -0.475695 -6.71651e-18)
(6.59997 -0.596857 9.29275e-18)
(8.11871 -0.226032 3.72376e-17)
(8.16971 -0.139618 -3.7855e-17)
(8.08673 -0.133979 8.22076e-17)
(6.90828 -0.11851 3.8396e-18)
(6.78581 -0.101933 3.13975e-18)
(6.97349 0.191752 2.70837e-17)
(6.9684 0.164582 2.66054e-17)
(7.00046 0.0242688 2.89042e-17)
(7.00286 0.0387955 6.28946e-17)
(6.37696 -0.390443 0)
(3.90405 0.642665 0)
(6.77911 -0.485383 0)
(6.75243 -0.612345 0)
(7.16331 -0.179286 -1.86606e-19)
(6.98221 0.273128 -2.78918e-17)
(6.09239 -0.090159 -8.67924e-18)
(7.00309 0.181773 -4.9591e-17)
(6.99232 0.22452 0)
(6.99134 0.204893 1.06134e-18)
(2.03477 0.300701 0)
(6.93406 0.122326 -1.43555e-17)
(6.94433 0.110465 1.41792e-17)
(6.50971 -2.81332 5.52529e-18)
(6.4784 -2.51705 0)
(6.4612 -2.40017 2.30711e-18)
(7.42337 -0.373053 -6.9268e-17)
(7.19201 -0.0558434 0)
(8.30309 -0.0279692 0)
(6.51393 -0.0601365 -2.78332e-18)
(6.4644 -0.0523759 -2.02259e-17)
(6.78716 -0.0549519 2.83914e-17)
(4.52594 -0.239563 6.71799e-17)
(4.7416 -0.239863 0)
(7.52429 -0.393702 -7.91071e-17)
(7.46954 -0.366738 6.28713e-17)
(8.08192 0.0408989 -3.38328e-17)
(8.19166 -0.120972 0)
(5.95645 -0.159762 0)
(7.09055 -0.0052406 0)
(7.19391 0.411063 1.0355e-17)
(7.17042 0.358562 0)
(8.09483 -0.140014 0)
(8.29864 -0.106869 -2.27686e-17)
(1.6628 0.530323 0)
(7.13777 -0.269673 -1.30616e-18)
(7.27605 0.00815698 0)
(4.48986 -0.72339 -3.26215e-17)
(7.22684 0.130129 -2.57259e-19)
(7.23572 0.0865764 1.01919e-17)
(0.94364 -0.0803266 -8.78925e-17)
(3.61039 0.457869 1.59805e-17)
(3.45909 0.638599 -9.9526e-18)
(6.78843 0.225465 5.45137e-17)
(6.99698 0.0573447 -2.68637e-17)
(6.99186 0.0769079 -2.81942e-17)
(5.0305 -0.91748 -2.50787e-17)
(6.45391 2.19032 -1.92567e-18)
(6.10077 0.0147084 -3.7594e-17)
(5.96655 -0.0389966 0)
(2.65678 -1.19663 1.27013e-17)
(2.6827 -1.29282 -1.28772e-17)
(6.63603 0.0849938 -4.67173e-19)
(6.52084 -0.000524743 7.92864e-17)
(6.6249 0.0133361 0)
(6.99925 0.0991579 5.79376e-17)
(7.0026 0.133357 2.07656e-18)
(2.66018 0.697698 0)
(6.963 0.263446 -5.80548e-17)
(6.58567 0.257745 -5.84149e-17)
(6.55131 0.333688 -3.47595e-17)
(6.85837 0.248058 1.06389e-16)
(6.89828 0.24884 -7.6623e-17)
(6.91631 0.210658 -3.08047e-17)
(7.30546 0.0578823 -5.53422e-17)
(6.22519 -0.0147748 2.55704e-17)
(6.34911 0.0483494 -6.32492e-17)
(6.11483 -0.183713 -1.46351e-17)
(6.23849 -0.100053 -8.96344e-17)
(7.51313 0.0147315 0)
(7.66367 0.0796762 -1.82154e-18)
(7.18785 -0.140282 -2.0053e-17)
(7.88508 0.00234019 5.20777e-17)
(6.56356 2.26834 1.17267e-18)
(6.98431 0.144873 4.42702e-18)
(7.05434 -0.34807 0)
(7.09055 -0.292822 6.66671e-18)
(4.16783 -0.438021 0)
(4.40383 -0.477725 5.42264e-17)
(7.47936 0.198486 -5.17492e-17)
(7.83121 0.163388 -2.39491e-17)
(7.53135 0.12552 -8.40648e-18)
(7.44704 0.149474 5.82723e-18)
(5.58026 -0.113969 0)
(5.37643 -0.147661 0)
(3.33983 -1.48831 -2.18576e-17)
(3.15119 -1.50421 0)
(3.07965 -1.67524 -1.84008e-17)
(2.75685 -1.65401 -1.59518e-17)
(7.01689 0.0570522 -8.50975e-18)
(6.71622 0.213609 0)
(6.79902 0.200272 0)
(7.5122 0.0227282 0)
(7.8452 0.0285742 -7.20685e-17)
(3.94586 0.252564 -2.96579e-17)
(4.13983 0.20795 2.50659e-17)
(8.37107 0.0846243 -1.48364e-17)
(8.23988 0.148393 -1.94379e-16)
(8.09408 0.0477503 -7.29785e-17)
(7.14046 0.0835895 0)
(7.70152 0.239534 0)
(7.01589 0.0834564 0)
(7.40469 -0.0491574 0)
(7.01129 0.184756 -4.88759e-16)
(4.89791 0.0308835 5.50696e-16)
(7.44381 0.174826 9.45079e-17)
(6.60038 -3.47417 0)
(6.63955 -3.30135 0)
(6.98766 0.0277084 -2.79135e-17)
(6.95107 0.0504553 -6.45521e-17)
(7.02151 0.0442654 2.12128e-17)
(6.93568 0.0652482 9.40192e-17)
(7.92511 -0.260017 6.351e-17)
(4.90682 -0.0172943 -4.7471e-17)
(5.07713 -0.0840527 -6.0871e-17)
(5.25 0.00636801 9.56019e-17)
(6.8905 0.130236 0)
(6.87774 0.153954 0)
(6.84627 0.191649 0)
(6.86873 0.182435 -3.15342e-17)
(6.82535 0.227023 0)
(7.00119 0.0661167 4.31185e-17)
(7.29604 -0.0822552 6.07518e-17)
(7.00563 -0.138678 -5.17538e-17)
(7.58902 -0.365108 1.06826e-16)
(7.68229 -0.300065 -7.13683e-17)
(7.66241 -0.27935 -6.63466e-17)
(7.64129 -0.263413 0)
(7.47239 -0.278133 2.52443e-17)
(7.54374 -0.302193 -2.51717e-17)
(4.78449 -0.0794792 -2.17476e-17)
(6.92894 -0.0370816 -6.35468e-18)
(7.84358 -0.232288 2.36668e-17)
(4.88197 -0.400677 0)
(5.06271 -0.346949 -2.71246e-17)
(5.27117 -0.353351 -4.71159e-17)
(3.74859 0.560479 7.0477e-18)
(3.79517 0.63179 6.15297e-18)
(6.35846 0.111614 3.1096e-17)
(6.26169 0.144318 0)
(3.34579 -0.840281 -3.30447e-18)
(3.26408 -1.00806 0)
(7.70134 -0.0963534 -1.18228e-17)
(7.85747 0.0355032 0)
(7.78432 0.116266 2.50557e-18)
(4.84004 1.28788 2.29359e-18)
(4.80615 1.27527 1.64635e-20)
(4.59998 -3.50316 3.05577e-19)
(4.61349 -3.57607 -2.71365e-19)
(2.57546 -0.893993 0)
(4.9641 2.46257 -7.61918e-19)
(6.72652 0.248271 -2.94652e-20)
(5.72026 1.39561 0)
(5.9639 1.25872 5.42613e-20)
(5.84868 1.07977 -1.43917e-19)
(2.45936 0.435067 0)
(5.73999 -2.8132 -2.11463e-19)
(8.64183 1.01853 -8.47503e-19)
(6.75318 0.540725 1.30768e-19)
(7.97296 -0.296897 1.58485e-18)
(6.18639 3.36734 2.55663e-20)
(2.55946 0.463483 4.27854e-18)
(4.84436 -4.65766 6.4638e-19)
(6.53785 -4.51934 0)
(4.24422 -0.93498 0)
(8.56672 1.0035 0)
(4.79369 -4.47839 0)
(4.83241 -4.52659 0)
(6.00122 2.74953 4.10044e-20)
(6.01015 2.76124 0)
(6.00202 0.630519 9.55388e-20)
(6.20299 1.10087 -7.93785e-21)
(6.19218 1.1681 9.03664e-21)
(5.73783 1.24275 8.67806e-20)
(6.81561 -1.54772 7.11511e-20)
(6.84395 -1.6279 3.40588e-20)
(5.43626 -4.96966 7.11013e-19)
(5.86991 1.05656 -8.134e-21)
(5.89617 0.991953 0)
(6.40726 1.33985 5.59517e-20)
(6.36268 0.996848 -6.89126e-21)
(6.35726 1.05265 -6.25759e-20)
(6.21304 1.17673 0)
(6.33688 -2.7116 0)
(6.33149 -2.65627 -4.45163e-21)
(3.56839 -2.6737 1.1755e-18)
(5.89696 1.44342 6.13619e-20)
(5.89958 1.37687 -1.863e-20)
(4.77658 -3.81967 0)
(1.46192 -1.93129 3.65961e-17)
(4.88519 2.30817 5.23332e-19)
(4.93302 2.35215 -1.41057e-20)
(2.49214 0.0356302 4.52297e-18)
(4.39184 -1.60904 -1.73391e-17)
(5.84305 2.7517 5.97238e-19)
(7.70023 0.786919 2.6452e-19)
(6.15507 -4.77365 -1.51176e-19)
(2.3403 -0.964091 -1.61556e-18)
(6.29308 2.65802 0)
(6.36404 2.77876 2.04528e-20)
(5.90953 -2.9788 9.29021e-20)
(4.12853 1.67079 -2.23655e-20)
(6.44914 -4.42665 -2.0818e-19)
(6.45394 -4.3948 5.774e-19)
(5.87818 -2.15204 0)
(6.76789 -1.88081 0)
(6.68405 -2.20579 -7.82671e-20)
(6.50118 3.05023 -9.13061e-20)
(6.31466 0.742741 -6.1238e-21)
(6.83438 -1.99089 4.8989e-21)
(6.1693 2.79591 0)
(5.12482 1.05611 0)
(7.1694 0.33852 0)
(5.77967 -2.93198 -6.07459e-20)
(3.13188 -4.14398 -4.29595e-20)
(3.22681 -3.87077 8.15e-19)
(6.77955 -0.861663 0)
(6.79129 -0.972577 1.05703e-17)
(5.81944 -4.83286 -7.01705e-19)
(6.46741 2.91998 -1.86926e-20)
(3.78269 -2.32727 6.89836e-19)
(6.65196 0.901737 -2.17095e-19)
(5.45676 -5.07633 0)
(6.13768 3.40302 0)
(6.08791 3.37511 -2.73064e-19)
(5.87722 2.8081 0)
(5.23594 -3.40585 -4.35271e-18)
(6.20945 3.70263 0)
(6.34771 3.00572 -2.17545e-20)
(5.99406 1.39233 0)
(5.01458 1.35034 3.09436e-19)
(4.99734 1.30167 1.52328e-19)
(5.82724 0.640223 2.69121e-19)
(6.5784 0.957416 0)
(6.57123 1.0103 0)
(6.64186 0.956926 2.11324e-19)
(5.72128 -2.79977 8.57044e-18)
(6.09084 1.55249 5.89676e-21)
(7.02053 -0.518182 0)
(6.98853 -0.432365 -4.93556e-20)
(2.31412 -1.99853 5.52902e-18)
(6.10298 1.10997 -1.75816e-20)
(6.10494 1.16583 0)
(2.62636 -0.11516 6.64236e-18)
(2.68088 0.0520483 0)
(7.1816 -0.1608 -4.25576e-19)
(7.16781 -0.103617 -2.81238e-19)
(5.92591 3.40824 -3.38737e-20)
(6.5556 -4.35924 2.52615e-18)
(4.12513 -1.11112 9.25108e-19)
(6.3764 2.68032 -2.09226e-20)
(6.36043 2.92252 9.18596e-20)
(6.28162 2.79186 1.35711e-18)
(6.89939 -0.970071 -7.49037e-21)
(2.61747 -4.3462 6.95683e-18)
(6.16493 1.18291 2.65617e-20)
(6.17361 1.12215 -1.26849e-20)
(7.01363 3.09831 2.74049e-19)
(6.80012 -2.03589 0)
(6.71356 -2.14324 4.62577e-20)
(5.20442 -5.1042 1.0251e-18)
(1.49252 -1.26969 -7.39888e-18)
(5.14405 2.06648 1.23031e-18)
(7.12177 -0.862593 4.73867e-19)
(5.26241 -3.15444 -1.43855e-19)
(5.27501 -3.22119 3.62331e-19)
(5.05221 2.18785 -5.57113e-19)
(4.98403 2.31891 -7.70671e-19)
(6.83735 -1.90865 -4.24626e-21)
(6.81721 -1.8655 3.23267e-20)
(7.12185 -4.41809 0)
(7.56224 -4.94295 0)
(6.8397 -0.936439 1.07922e-19)
(6.95095 -0.442213 3.9229e-19)
(7.04327 1.02575 0)
(4.78681 1.38679 -2.25687e-18)
(6.30336 1.30234 0)
(7.30185 -3.46026 6.46444e-19)
(2.94057 -2.58624 1.52457e-17)
(7.34841 -4.49306 0)
(6.2058 2.72315 -7.38864e-20)
(4.77862 -4.5855 -2.21433e-19)
(4.78624 -4.62898 9.79477e-19)
(6.15572 2.85019 0)
(6.16695 2.83418 -3.20615e-19)
(6.80153 2.45326 0)
(4.53821 -0.225576 0)
(5.98043 0.511027 -5.90571e-20)
(8.31302 -2.57728 1.16953e-18)
(5.83148 -2.15694 0)
(6.19938 -2.42589 0)
(6.01478 1.00784 -5.89128e-20)
(6.42583 -3.92 1.56184e-19)
(5.90241 -0.835299 1.41137e-17)
(6.52544 -1.71509 6.72849e-22)
(7.03305 -4.40469 -1.65867e-18)
(7.07878 -4.35943 0)
(5.76635 1.91713 0)
(2.13874 -3.9741 1.08031e-17)
(4.32712 0.877686 -1.26347e-18)
(6.34389 3.46466 8.93856e-20)
(6.08457 -2.65748 6.10637e-20)
(5.82124 3.27283 0)
(5.10567 1.87293 4.52727e-19)
(5.11045 1.75029 8.34868e-19)
(6.63394 -1.10798 -1.06836e-19)
(5.6946 1.41998 1.56696e-19)
(6.61439 -1.98504 -6.72842e-21)
(6.62696 -2.0587 6.8479e-20)
(6.57 1.33208 -8.1679e-20)
(6.0251 0.572214 -1.02613e-19)
(6.1306 0.992856 0)
(6.1613 0.994291 2.40403e-20)
(4.49333 -3.57878 0)
(4.26532 -3.58335 0)
(4.18708 -0.920837 0)
(2.60459 0.577925 -3.49843e-18)
(2.57099 0.541027 0)
(2.57666 0.684703 0)
(6.59557 -0.423754 2.81318e-20)
(6.4493 2.89941 5.33864e-22)
(7.02116 3.14115 1.58174e-19)
(3.79522 -1.83164 0)
(3.78337 -1.8545 4.28925e-19)
(5.1191 0.993936 0)
(6.28457 2.69399 5.23173e-21)
(5.1428 2.34019 0)
(2.51253 -0.898768 4.57148e-18)
(4.63746 -0.314253 1.21255e-18)
(4.66931 -0.347676 -5.21989e-20)
(6.64278 0.755668 -2.01802e-19)
(6.79976 0.688015 8.52726e-18)
(6.75915 3.00676 6.85019e-19)
(4.60413 -0.05611 0)
(4.57445 -0.150654 0)
(6.54094 1.74127 -1.56936e-20)
(6.25805 2.70978 0)
(6.26379 -4.69717 0)
(6.04503 -1.0579 -1.04278e-20)
(6.45582 -4.65149 -7.17427e-19)
(5.86644 1.27502 -6.75681e-20)
(5.86968 1.197 1.00044e-19)
(4.28807 -0.831045 -5.35267e-19)
(6.33484 -2.12591 2.28087e-20)
(6.76702 -5.3591 -3.4191e-19)
(6.27631 2.62721 4.35281e-20)
(6.25653 -4.52607 4.12902e-19)
(6.30465 0.391559 3.82537e-21)
(6.27574 0.387773 -4.80915e-20)
(5.09462 2.2993 -1.05033e-18)
(4.96923 1.00958 0)
(4.99963 1.10409 -2.8705e-22)
(4.20323 -4.63953 4.8197e-19)
(6.45595 0.415631 0)
(6.17192 2.65052 1.81652e-19)
(5.50526 -4.98078 0)
(5.51646 -5.03541 7.47891e-19)
(4.85245 0.751352 -1.33259e-19)
(6.05264 1.15775 0)
(6.07579 1.19159 0)
(6.23467 2.59928 2.43485e-20)
(6.33723 2.62387 2.96684e-20)
(6.36608 2.63683 3.30582e-20)
(4.11744 -5.11923 -2.51403e-19)
(6.82993 0.655185 -1.71505e-19)
(6.92164 0.633714 0)
(8.23487 -2.62004 2.28085e-18)
(6.76499 -2.01775 -5.47862e-20)
(6.75337 -1.94387 -2.35226e-20)
(6.71547 -2.07989 1.2523e-19)
(5.67211 0.283684 4.21242e-20)
(5.67623 0.380472 0)
(5.85767 0.0872087 0)
(5.8474 0.0110795 0)
(6.72872 -1.0196 0)
(6.72814 -0.961119 0)
(7.55058 0.978904 3.86173e-19)
(5.46291 3.43237 2.0851e-19)
(6.41702 3.07524 3.30652e-20)
(6.45194 3.05344 0)
(6.74216 -3.88459 3.85695e-18)
(5.77058 -0.860405 0)
(7.35738 -4.94326 0)
(4.82838 0.5088 4.32548e-19)
(6.22499 -4.6231 -4.70118e-19)
(6.14698 -4.68203 9.73179e-19)
(7.3349 -4.78051 2.60353e-19)
(5.87366 -2.31531 2.23032e-19)
(6.68108 -4.58592 0)
(6.22517 2.63765 5.06453e-20)
(6.19572 2.62464 0)
(7.27979 -1.91665 -3.12767e-19)
(7.11499 -1.23907 -4.70899e-19)
(6.11447 1.28939 1.09017e-20)
(4.453 -0.345553 0)
(6.95725 -5.17483 5.74793e-19)
(5.67017 2.8859 0)
(5.60857 2.86302 2.70091e-18)
(6.29378 -4.7525 -1.0975e-19)
(4.75484 0.115269 8.2146e-19)
(7.10819 1.08254 0)
(1.63932 -1.67287 0)
(6.48473 1.78841 0)
(6.39615 1.89638 0)
(5.96437 -2.31636 3.40454e-19)
(5.98255 1.48891 2.00772e-20)
(5.9626 1.47025 -6.15762e-21)
(6.27307 2.86213 2.06831e-19)
(6.25052 2.87796 -3.0421e-20)
(6.13277 0.601577 0)
(6.05835 2.62921 -2.78776e-18)
(7.96396 0.550849 0)
(7.79259 0.565898 1.05937e-18)
(5.8202 1.16053 0)
(5.91369 3.07356 0)
(5.92555 3.18822 5.1655e-20)
(6.49872 -1.54918 3.53553e-20)
(6.28645 3.17611 -1.38521e-20)
(6.26503 3.28139 0)
(6.27499 -1.97516 -1.49219e-19)
(6.96103 -1.06656 1.14248e-19)
(6.99946 -0.910532 3.05128e-19)
(5.98182 2.80403 -1.43737e-19)
(6.00291 2.77596 0)
(6.40498 0.985943 -2.43422e-21)
(7.39246 0.836095 -2.18583e-20)
(7.41882 0.893714 2.04355e-20)
(6.1702 -2.24027 -2.0801e-19)
(6.09562 -2.3428 0)
(2.09039 -1.13273 0)
(5.06895 -4.73675 -7.95878e-19)
(4.92561 -4.75204 9.11848e-19)
(6.60785 -2.32005 -2.26349e-20)
(2.79831 0.525491 0)
(6.46045 2.95289 -6.75219e-21)
(6.43664 2.96821 1.08077e-20)
(4.72224 -4.7005 0)
(4.60856 -4.6259 -1.94821e-18)
(6.26644 -2.21739 -1.53892e-20)
(6.28742 -2.13868 6.35381e-20)
(6.19702 -2.20598 1.85167e-19)
(4.83129 0.732146 1.30498e-18)
(4.86989 0.909311 7.56889e-19)
(6.26104 -4.44716 1.44388e-18)
(6.50161 0.559527 8.89508e-20)
(6.16662 0.468591 -4.29569e-21)
(6.15097 -4.63551 0)
(6.11552 -4.61668 0)
(6.18907 -4.60261 0)
(3.29665 -3.68249 6.97972e-19)
(3.28501 -3.71729 1.95497e-18)
(4.90254 -1.10564 0)
(6.23118 -1.76954 -5.68e-20)
(7.98184 -0.0348457 -1.81322e-19)
(8.02479 -0.0693797 0)
(5.79838 -1.65624 -2.59062e-19)
(5.81187 -1.72471 1.66081e-19)
(6.53605 -4.39686 -1.67364e-18)
(6.50471 -4.39842 1.38715e-18)
(6.57343 -4.42561 0)
(5.05403 1.39923 5.03688e-19)
(5.09689 1.57341 3.87306e-19)
(4.10691 -4.28022 0)
(6.38106 -4.60399 -9.24421e-19)
(6.44324 3.20795 -2.0123e-20)
(5.87585 2.45583 4.25896e-18)
(5.21451 -4.97443 7.72587e-19)
(5.23205 -5.02628 0)
(2.59967 -3.2376 -8.60221e-18)
(7.09907 -0.610503 4.7979e-19)
(6.76632 0.260857 2.75604e-19)
(6.86223 0.24 9.41205e-20)
(5.89565 1.1367 -1.68924e-19)
(2.52767 -0.0982602 -6.54977e-18)
(6.51434 3.41204 0)
(6.59569 3.39724 0)
(6.6375 -0.760882 -1.2706e-17)
(6.69413 -0.862509 0)
(6.69625 -3.19414 0)
(7.06511 -0.266735 -4.44279e-19)
(7.03878 -0.198128 6.60891e-19)
(7.06423 -1.17076 0)
(7.02465 -1.1661 -1.5511e-19)
(6.20286 2.76208 7.57256e-20)