/*--------------------------------*- C++ -*----------------------------------*\
  =========                 |
  \\      /  F ield         | OpenFOAM: The Open Source CFD Toolbox
   \\    /   O peration     | Website:  https://openfoam.org
    \\  /    A nd           | Version:  6
     \\/     M anipulation  |
\*---------------------------------------------------------------------------*/
FoamFile
{
    version     2.0;
    format      ascii;
    class       volScalarField;
    location    "1808";
    object      nut;
}
// * * * * * * * * * * * * * * * * * * * * * * * * * * * * * * * * * * * * * //

dimensions      [0 2 -1 0 0 0 0];

internalField   nonuniform List<scalar> 
29884
(
0.276338
0.225624
0.122062
0.155995
0.15636
0.129646
0.194542
0.263904
0.213439
0.141145
0.153475
0.141699
0.15303
0.287411
0.280042
0.191816
0.28735
0.266219
0.279512
0.172451
0.27802
0.118572
0.142525
0.140649
0.144303
0.155028
0.194394
0.219173
0.150191
0.253474
0.14866
0.162942
0.195303
0.185293
0.143752
0.147362
0.249419
0.166602
0.179344
0.187978
0.231652
0.18485
0.176331
0.200848
0.183851
0.166943
0.175635
0.176441
0.136633
0.170883
0.167684
0.174262
0.192915
0.275211
0.263296
0.267612
0.187071
0.284236
0.262144
0.266547
0.198596
0.190475
0.135278
0.171051
0.166635
0.172806
0.280481
0.204342
0.302648
0.211426
0.141248
0.149598
0.143864
0.10938
0.317997
0.28095
0.234126
0.231221
0.225939
0.21158
0.180453
0.197655
0.11344
0.142316
0.118726
0.0973591
0.148765
0.156992
0.139623
0.072192
0.145054
0.156881
0.100628
0.0637209
0.151754
0.00038771
0.139829
0.139902
0.149681
0.0663535
0.139777
0.139243
0.169897
0.177397
0.153544
0.196429
0.0782584
0.0767229
0.153792
0.138984
0.162763
8.78012e-05
0.135952
0.118831
0.141914
0.142056
0.149604
0.111935
0.147764
0.136979
0.139772
0.141132
0.161418
0.140069
0.136903
0.262134
0.225336
0.203723
0.301039
0.147688
0.143026
0.147274
0.254193
0.237557
0.128859
0.144167
0.165758
0.152226
0.163731
0.163888
0.155648
0.162017
0.173231
0.157311
0.170914
0.173986
0.160475
0.165441
0.178562
0.173868
0.171483
0.0948677
0.0832639
0.183666
0.249004
0.215701
0.199091
0.175248
0.229558
0.201382
0.189256
0.156102
0.154289
0.172928
0.000287266
0.000283966
0.204642
0.160433
0.139505
0.139492
0.21218
0.139208
0.139042
0.114475
0.117371
0.15183
0.144039
0.18896
0.142641
0.156023
0.145707
0.128999
0.131198
0.135183
0.117526
0.132587
0.139601
0.139234
0.155562
0.150284
0.156005
0.14153
0.136695
0.143535
0.146337
0.146728
0.141195
0.146816
0.151877
0.149793
0.218064
0.177393
0.15369
0.142321
0.150032
0.136293
0.144737
0.128295
0.139499
0.185252
0.174654
0.215561
0.21922
0.194851
0.257707
0.0435256
0.101033
0.0374477
0.112348
0.0392211
0.037224
0.0422142
0.13749
0.119752
0.0856047
0.0348598
0.0408577
0.0543083
0.0064291
0.0451182
0.0460206
0.0377035
0.0479865
0.0355189
0.0375044
0.0467537
0.0452715
0.138046
0.145646
0.0170589
0.0251999
0.000660446
0.0423323
0.0250811
0.0353472
0.12347
0.0400313
0.038064
0.0941671
0.0640248
0.0393191
0.0784495
0.114626
0.111407
0.0374421
0.0373774
0.0445091
0.0418552
0.0806044
0.0857801
0.0595854
0.102895
0.0170872
0.000937391
0.0826456
0.0337268
0.0415978
0.122836
0.122499
0.0336512
0.0874569
0.0888854
0.0474276
0.0301456
0.0269798
0.0769661
0.0717228
0.0544286
0.0578336
0.0215653
0.152018
0.0459498
0.129591
0.0906215
0.138266
0.116831
0.116595
0.0270906
0.000229272
0.137792
0.0488659
0.0463822
0.0472849
0.0193306
0.0336407
0.0340446
0.108596
0.0461719
0.0460116
0.0275166
0.0559697
0.0415191
0.0429631
0.0418557
0.0538902
0.059946
0.0756468
0.131597
0.11124
0.112162
0.112884
0.110399
0.0422369
0.0134392
0.0145633
0.0360411
0.0385932
0.0431348
0.0450013
0.0422737
0.0536652
0.0639515
0.0586881
0.0588491
0.0373885
0.0897418
0.0411461
0.0422714
0.0444061
0.0392189
0.111315
0.112843
0.112981
0.111395
0.0419416
0.0404986
0.137694
0.0792659
0.0479336
0.0461671
0.0420722
0.121315
0.0424487
0.111789
0.135754
0.046764
0.050718
0.0490295
0.0484037
0.0724009
0.0716046
0.0655201
0.0874243
0.0883686
0.0860296
0.0627778
0.0572673
0.054365
0.0555141
0.0578738
0.063594
0.0739527
0.132653
0.121322
0.11005
0.110234
0.120637
0.133088
0.000469718
0.0406232
0.0420357
0.0404248
0.137073
0.144398
0.129518
0.100235
0.0956942
0.0427648
0.0343708
0.0359263
0.033391
0.117221
0.126875
0.122695
0.131593
0.0308365
0.0347902
0.0326753
0.0327363
0.0892345
0.0854612
0.0837693
0.0913553
0.0370178
0.0381917
0.0389184
0.0437205
0.0425057
0.0341335
0.0291654
0.0834084
0.0711086
0.0925106
0.0850049
0.0883581
0.0899278
0.0200317
0.137256
0.138483
0.139458
0.138713
0.0405936
0.0423134
0.0478932
0.047149
0.0451576
0.0598001
0.0601998
0.0341254
0.0388829
0.0394127
0.0135581
0.0535687
0.0569883
0.0506816
0.0719993
0.0796452
0.0740665
0.0765704
0.0503385
0.0555881
0.0533942
0.052445
0.13006
0.0645531
0.062111
0.0667308
0.0605491
0.039927
0.0417405
0.0391097
0.0409289
0.0406646
0.039222
0.151349
0.150021
0.135427
0.0420462
0.0404708
0.0420076
0.0398957
0.122065
0.137933
0.0757047
0.0853054
0.130626
0.145338
0.139461
0.130515
0.15274
0.00588538
0.124288
0.125702
0.0758824
0.0310133
0.0324522
0.0337
0.0302945
0.0818832
0.0907627
0.0867665
0.0863314
0.137945
0.13776
0.138014
0.139672
0.139611
0.165869
0.151226
0.157616
0.15902
0.140589
0.144576
0.142496
0.142437
0.0246899
0.0232244
0.0221679
0.0250681
0.104238
0.103096
0.106715
0.0449894
0.042186
0.0422241
0.044686
0.136953
0.134702
0.136208
0.000661279
0.00439524
0.138674
0.0107406
0.119884
0.139543
0.138718
0.00092432
0.00127249
0.139034
0.139054
0.139226
0.138868
0.0574339
0.138506
0.120757
0.000257841
0.000310324
0.137315
0.0354916
0.229789
0.13932
0.25589
0.126325
0.140695
0.138867
0.00064775
0.141476
0.134205
0.140304
0.13779
0.0434484
0.121528
0.137967
0.123267
0.134833
0.144592
0.129661
0.124467
0.170474
0.210884
0.240726
0.103817
0.103402
0.139053
0.139033
0.13975
0.139592
0.130155
0.00573288
0.128533
0.121843
0.104502
0.139124
0.112621
0.139114
0.139095
0.139063
0.00272373
0.138412
0.138627
0.0424056
0.048714
0.0485228
0.122645
0.243803
0.209493
0.122724
0.118823
0.123346
0.102042
0.107274
0.127679
0.128429
0.184426
0.204848
0.12851
0.252057
0.138238
0.138339
0.253181
0.207083
0.00086153
0.126615
0.261393
0.0963051
0.141821
0.142992
0.000365493
0.0763256
0.070008
0.137488
0.139575
0.139368
0.107691
0.121088
0.131274
0.129552
0.0399909
0.0399053
0.144052
0.14148
0.145012
0.139527
0.139269
0.00100544
0.138929
0.137339
0.136088
0.137809
0.138069
0.138289
0.183992
0.133349
0.136268
0.130153
0.132754
0.160405
0.166214
0.199388
0.177087
0.121031
0.137556
0.133481
0.141498
0.13401
0.124962
0.145768
0.159889
0.15005
0.146692
0.123365
0.11951
0.0567992
0.0522287
0.0483193
0.0388714
0.139018
0.140662
0.142134
0.253617
0.194643
0.0872578
0.0935598
0.200826
0.17203
0.196867
0.145545
0.159307
0.153785
0.16453
0.234716
0.189103
0.181589
0.0413878
0.0414318
0.138768
0.138572
0.139563
0.138294
0.157142
0.11145
0.114783
0.118434
0.137582
0.138189
0.137561
0.137647
0.137239
0.139675
0.162108
0.153543
0.132964
0.139656
0.142589
0.14525
0.135694
0.136284
0.212129
0.267775
0.237942
0.109304
0.113629
0.116089
0.00427701
0.00467362
0.136157
0.133532
0.0654417
0.0612484
0.165913
0.168769
0.162047
0.0319758
0.0303088
0.057357
0.0568621
0.0379419
0.0387863
0.0437278
0.077673
0.0733161
0.0758926
0.0293304
0.065832
0.00608489
0.0423292
0.0179576
0.0608958
0.0348073
0.00647862
0.0471217
0.0346365
0.00781751
0.00650784
0.00693737
0.0897163
0.0900552
0.072098
0.0627164
0.0630504
0.0772139
0.0508244
0.0499485
0.0161936
0.0755394
0.0747561
0.0540601
0.055818
0.0557835
0.0621128
0.0609931
0.0612499
0.0288188
0.0755625
0.0753982
0.0105429
0.00282169
0.0351468
0.0369637
0.032948
0.0941944
0.0947553
0.0256616
0.0332307
0.0267139
0.0818096
0.0770229
0.0645799
0.0103643
0.0460967
0.0462837
0.0669767
0.0527723
0.0554447
0.0614351
0.0593392
0.0512443
0.0944806
0.0641543
0.0325125
0.0652753
0.0132282
0.0158278
0.10649
0.097799
0.0255406
0.067457
0.0238484
0.0457302
0.0154507
0.0605843
0.062659
0.0926157
0.00155785
0.0454275
0.071219
0.0722212
0.0465714
0.0455376
0.0748134
0.0477606
0.0481509
0.0463354
0.00153972
0.067615
0.0364861
0.0372209
0.0221058
0.0674923
0.0673522
0.0406693
0.042336
0.0312647
0.0318311
0.0638177
0.0468383
0.0381711
0.0764726
0.073593
0.104597
0.0445167
0.00840975
0.0647738
0.0647156
0.0354287
0.0523248
0.0545986
0.0107702
0.00164244
0.047471
0.0347089
0.0639316
0.0636206
0.0413586
0.0387495
0.0510336
0.0516287
0.0373331
0.00927382
0.0472623
0.038661
0.0383027
0.0293173
0.0575847
0.0353909
0.00143052
0.0248826
0.0888781
0.005705
0.00573983
0.0960479
0.0960845
0.118777
0.0566764
0.0723588
0.00948687
0.0778177
0.0660986
0.0716548
0.044564
0.0336144
0.0590115
0.0381676
0.0362069
0.0794917
0.00675003
0.0133677
0.0518559
0.0641583
0.0704826
0.046788
0.0493415
0.0555191
0.0775177
0.0570345
0.0566268
0.0500451
0.0713929
0.0669588
0.0653256
0.0557468
0.0532509
0.0401812
0.0363629
0.034948
0.0342847
0.0535341
0.0690469
0.0340378
0.0430444
0.0414313
0.0649685
0.0829358
0.0473052
0.0348617
0.0617302
0.062738
0.0456655
0.136199
0.107654
0.056462
0.0572735
0.0554311
0.0851894
0.0371521
0.0681197
0.0428937
0.0761415
0.0759985
0.0345518
0.0623085
0.0233111
0.0823428
0.0404166
0.0619898
0.0629013
0.0435913
0.0561392
0.0557197
0.0401133
0.135316
0.0874821
0.017211
0.0168231
0.0517355
0.0699641
0.0689417
0.0837724
0.0787465
0.0770588
0.0325117
0.0408575
0.0384134
0.0104371
0.0533763
0.0535701
0.0546108
0.074285
0.0745151
0.0728189
0.072701
0.0521171
0.0514616
0.0291714
0.0637539
0.0648429
0.063938
0.041593
0.0708501
0.0139706
0.056484
0.0378865
0.0349756
0.0192466
0.0664957
0.0486364
0.0851386
0.0860155
0.0339613
0.0371949
0.0669957
0.0549846
0.0251212
0.086916
0.0872233
0.0367222
0.0603706
0.0376757
0.00507226
0.125959
0.124269
0.0659579
0.0726009
0.0736386
0.0821255
0.0831469
0.0677243
0.103592
0.0198564
0.0234041
0.076568
0.0795339
0.0733888
0.0596141
0.0660356
0.0620709
0.0633492
0.0418713
0.0398078
0.0896342
0.0900442
0.0536642
0.0310686
0.030941
0.0642433
0.0646734
0.0161917
0.0108024
0.00775143
0.0572879
0.0446451
0.0668452
0.0677211
0.0047894
0.00419326
0.0631615
0.0629769
0.0639369
0.046057
0.0437447
0.0419842
0.0512149
0.0669602
0.0359905
0.0355933
0.0375109
0.0165235
0.017337
0.105452
0.0644825
0.0186898
0.0178405
0.0691096
0.0687994
0.0469816
0.0467546
0.0473144
0.0517864
0.0513594
0.00448992
0.041905
0.0584199
0.105901
0.0119358
0.0118427
0.0171016
0.0344116
0.0422568
0.0394813
0.0751666
0.0352341
0.0944226
0.0957308
0.11575
0.110044
0.0487153
0.0343051
0.0350289
0.0387522
0.0400993
0.100691
0.100126
0.0989036
0.0386607
0.0419492
0.0416515
0.0111118
0.0163991
0.0628449
0.0228716
0.0235207
0.0522148
0.053163
0.0909806
0.050629
0.0514459
0.0428035
0.0376218
0.0667176
0.0669615
0.0661647
0.0675407
0.0683054
0.0518399
0.070536
0.00683439
0.020409
0.0235422
0.0146688
0.0149771
0.0497247
0.0539764
0.0382724
0.0401662
0.0580016
0.058015
0.0579435
0.0587017
0.057058
0.0487956
0.0474705
0.0335977
0.0362154
0.0342326
0.0661697
0.0666559
0.0654722
0.00420017
0.0653734
0.106197
0.103613
0.0654243
0.0646183
0.0655774
0.0638357
0.0649539
0.0399313
0.0419907
0.041295
0.0405557
0.0584441
0.0541571
0.0425954
0.0951219
0.0946154
0.094443
0.0604768
0.0886165
0.0300242
0.0225542
0.0198281
0.0311411
0.0292338
0.0333502
0.105553
0.0544193
0.0550475
0.0745678
0.107033
0.104151
0.0598231
0.09672
0.0504732
0.0490349
0.0501834
0.043761
0.0424245
0.0446291
0.0853413
0.0452323
0.0717889
0.071924
0.104619
0.0433765
0.0774517
0.0772189
0.0773572
0.0380482
0.000963384
0.0456248
0.0489793
0.0475144
0.0121666
0.00040461
0.102221
0.0525006
0.10793
0.0493724
0.0502861
0.0782586
0.0574054
0.0796221
0.112556
0.0156031
0.0764114
0.0760649
0.0787748
0.032685
0.101232
0.0999138
0.102171
0.0658995
0.0664501
0.000671118
0.050698
0.0496262
0.100187
0.102906
0.0981732
0.000769166
0.000799754
0.0922769
0.0237993
0.0203445
0.0472373
0.0493073
0.0486862
0.0478016
0.0879323
0.0301247
0.0291319
0.0436826
0.000609134
0.0711665
0.0714373
0.0805563
0.0793225
0.0645057
0.0170899
0.064528
0.0631025
0.0984127
0.0986904
0.0168961
0.0862008
0.0868753
0.0868628
0.0603733
0.0603763
0.0741056
0.0873025
0.0609566
0.0544805
0.00198947
0.043576
0.0610686
0.000569503
0.0358099
0.0918782
0.0546895
0.00528137
0.0486442
0.0472108
0.0610925
0.0620188
0.087698
0.0836981
0.0590878
0.0599316
0.0563555
0.0777714
0.0789492
0.0773155
0.0771906
0.0766568
0.000950229
0.02401
0.000507097
0.0571186
0.00510456
0.135997
0.13621
0.136314
0.135976
0.0658705
0.0557683
0.0557986
0.137799
0.13813
0.0573191
0.0788475
0.0772637
0.0770866
0.0451447
0.0607379
0.0677608
0.0694901
0.093607
0.0897784
0.0384273
0.0361182
0.0366253
0.00053722
0.0344564
0.035464
0.0363204
0.0337986
0.076352
0.0764087
0.0327466
0.0937212
0.0952434
0.0771697
0.0431552
0.0434952
0.0414844
0.0445411
0.0427982
0.0458495
0.0279976
0.0273512
0.128
0.0456096
0.0377009
0.0374067
0.0653704
0.0661702
0.0927644
0.0927875
0.0935201
0.0920696
0.072901
0.0728221
0.0625405
0.045192
0.0453276
0.0450277
0.0985073
0.0962827
0.000315288
0.0445645
0.0453375
0.0160276
0.0137112
0.000441001
0.000648058
0.000620916
0.0399759
0.03938
0.00825133
0.00862036
0.0934492
0.0756655
0.0854325
0.0459032
0.0393326
0.0160031
0.0154037
0.0174763
0.0446216
0.0437107
0.0448275
0.0438675
0.000445736
0.00076589
0.000785554
0.00115987
0.00939473
0.012612
0.0347293
0.0336897
0.000849346
0.0444643
0.0259634
0.0922729
0.0920453
0.0945835
0.0912984
0.0919827
0.0910089
0.105363
0.106912
0.104248
0.102531
0.0725772
0.039888
0.0417161
0.0395105
0.0529237
0.0535842
0.0511844
0.116367
0.105294
0.110279
0.0945861
0.0954878
0.0955603
0.0745989
0.0709213
0.0709443
0.0701548
0.0680931
0.0723317
0.0483161
0.0697776
0.0690976
0.0699211
0.00041321
0.000693301
0.0896025
0.090484
0.0900121
0.0900406
0.0360488
0.0666519
0.0670276
0.0659051
0.091871
0.0931699
0.0935922
0.0913192
0.057605
0.0580473
0.0566075
0.156535
0.0394764
0.0440075
0.0442908
0.0437085
0.0446913
0.0785053
0.0844974
0.0614483
0.0621888
0.0665449
0.0655098
0.0258324
0.128407
0.034613
0.0331641
0.105594
0.000363713
0.0392486
0.0465517
0.0669081
0.0673627
0.0664643
0.0837344
0.0847189
0.00796419
0.0453308
0.0448529
0.0466637
0.031088
0.0324416
0.0290058
0.0346906
0.0368143
0.0362403
0.00471607
0.0045358
0.0485861
0.0493174
0.0634295
0.0631468
0.0642598
0.000338706
0.0572235
0.000616495
0.0650481
0.0445198
0.0432508
0.0443507
0.0430123
0.00162951
0.0478554
0.0490001
0.0484553
0.0683285
0.0496117
0.058791
0.0571228
0.0424627
0.0421752
0.041482
0.0431329
0.0429335
0.0398766
0.0418984
0.0405751
0.0406392
0.0389537
0.0406412
0.0425102
0.00107274
0.00427377
0.0902115
0.0905867
0.0898249
0.0908966
0.0551316
0.0557064
0.0560835
0.0356229
0.0426214
0.0426284
0.0441358
0.0613892
0.0606902
0.0610728
0.0950724
0.0970245
0.0957123
0.0970303
0.0983158
0.0479232
0.0462144
0.0463243
0.0477187
0.103313
0.105092
0.10442
0.103845
0.0305378
0.0293925
0.0320331
0.0533098
0.0522133
0.0655108
0.0655206
0.0648698
0.0422419
0.0405409
0.0705382
0.0720788
0.120659
0.119069
0.119365
0.120435
0.0818996
0.0784438
0.0795385
0.0416158
0.0432989
0.0305264
0.0283839
0.0280185
0.0170719
0.0585584
0.0574874
0.0604677
0.0497169
0.0503886
0.0388238
0.0864337
0.0883751
0.0881756
0.0864573
0.00108968
0.0539874
0.0552162
0.0543205
0.0548503
0.13704
0.137199
0.0554948
0.0537952
0.0544798
0.0548
0.0524068
0.0526346
0.0511432
0.0249591
0.0271396
0.0244057
0.0475344
0.0488758
0.0475543
0.0489295
0.0527953
0.0686781
0.0590578
0.0441174
0.0434282
0.0443753
0.0430698
0.00756109
0.0686421
0.00735571
0.00724692
0.0928497
0.0921302
0.0921956
0.092741
0.0637883
0.0496767
0.0491348
0.0650716
0.0647325
0.0650387
0.101503
0.0859477
0.0457528
0.0463241
0.045205
0.0381094
0.0349849
0.0362437
0.0367081
0.0371097
0.0769351
0.0763183
0.0106261
0.0129917
0.0526523
0.0516118
0.0518127
0.00117388
0.0521738
0.0673656
0.0744477
0.073919
0.0758592
0.0620493
0.0388057
0.0372249
0.0394802
0.11104
0.108418
0.109812
0.0456846
0.0454688
0.128523
0.129575
0.035026
0.0359252
0.0367447
0.0991524
0.0954354
0.0894192
0.0122925
0.0148893
0.013656
0.011114
0.0109288
0.0118795
0.00982898
0.0152507
0.0514233
0.0591506
0.0601974
0.0557883
0.0554206
0.0567723
0.0638362
0.0631944
0.0481176
0.0479376
0.0924694
0.0929739
0.0424479
0.0441682
0.104441
0.118939
0.0967448
0.0975744
0.0837472
0.0861019
0.0822989
0.0859437
0.0878339
0.0868693
0.023152
0.0277311
0.0601419
0.0588451
0.0593344
0.0596853
0.0740482
0.0430979
0.0437863
0.0444985
0.0449076
0.0442762
0.0461991
0.0428739
0.000842563
0.0466284
0.0470362
0.0479837
0.0740269
0.0698216
0.0389905
0.038057
0.0654539
0.0647358
0.0656662
0.0762123
0.0824212
0.0478459
0.0475606
0.0479146
0.0475934
0.0334184
0.0926049
0.0915801
0.0414767
0.0408628
0.0419188
0.0403583
0.06186
0.0624946
0.0612375
0.00608434
0.0066302
0.00527605
0.083023
0.0845951
0.0805502
0.0408644
0.0396997
0.0463312
0.044537
0.051406
0.0520715
0.0522358
0.0631714
0.0411878
0.0424511
0.0426174
0.0799101
0.0422149
0.0405744
0.0411885
0.0416357
0.111262
0.109383
0.109522
0.11103
0.0723044
0.0407589
0.0418953
0.0406903
0.0423287
0.0642503
0.0927337
0.092372
0.0934205
0.0917827
0.0910962
0.0920655
0.0925248
0.0907733
0.0347344
0.0492678
0.0487926
0.0484125
0.0486027
0.000589012
0.00629575
0.0709572
0.0704478
0.0585138
0.0592902
0.0594499
0.0588009
0.0601948
0.0465296
0.0457718
0.0067585
0.00813982
0.0560653
0.0545888
0.0556101
0.0551435
0.0743519
0.0888754
0.0879201
0.0884997
0.00817012
0.054364
0.053458
0.0546877
0.0530551
0.0408415
0.0420481
0.040944
0.0418292
0.0847666
0.0844198
0.0837673
0.0769634
0.022051
0.0213035
0.0208985
0.0222987
0.0283285
0.0294835
0.0483413
0.0651066
0.0651842
0.0652361
0.0448949
0.04675
0.0460558
0.0455641
0.0764169
0.0767897
0.0552582
0.0562486
0.0561809
0.0552498
0.0395897
0.0447713
0.0446647
0.0412606
0.0245205
0.0218866
0.0421906
0.0434279
0.0725972
0.0720448
0.072728
0.0988103
0.0981689
0.0978078
0.0328655
0.0315605
0.0323172
0.0573833
0.0578366
0.0583212
0.0568822
0.0349041
0.0435052
0.0430023
0.0442692
0.0421857
0.00437096
0.0371184
0.0331123
0.0362665
0.0573835
0.0582725
0.0582944
0.0572813
0.128164
0.0899175
0.0891881
0.0892182
0.0898244
0.0588489
0.0598163
0.0587224
0.0357806
0.0918283
0.0912
0.0918439
0.0563934
0.0579595
0.028764
0.0316534
0.0303477
0.045091
0.0442797
0.0453058
0.0690485
0.0368952
0.0751487
0.050796
0.0466961
0.0887553
0.0880744
0.0914068
0.00979442
0.00823941
0.010907
0.060608
0.0446455
0.0455386
0.0439475
0.0308851
0.0300976
0.0877869
0.0854066
0.0860671
0.0872432
0.0915203
0.0909892
0.0439105
0.045864
0.0910186
0.0893093
0.0910724
0.0890221
0.123962
0.124377
0.0400618
0.0897627
0.0895812
0.0894794
0.0735521
0.0745178
0.0732893
0.0164582
0.0319487
0.0314205
0.0332679
0.0303388
0.0433193
0.0453982
0.0444309
0.0442972
0.0473043
0.0455246
0.0464471
0.110489
0.0941236
0.10994
0.0985697
0.0242275
0.0804993
0.0795649
0.114115
0.115726
0.0463089
0.0454008
0.0451332
0.0464567
0.0910872
0.0903793
0.120507
0.118698
0.0382621
0.0596904
0.0604911
0.060837
0.0237447
0.0213332
0.0231019
0.0213388
0.0286565
0.0314532
0.0436253
0.0443144
0.0436536
0.0287549
0.0249549
0.02726
0.0268072
0.0579442
0.0569163
0.108887
0.0991062
0.037726
0.0397386
0.0391808
0.0378533
0.0614817
0.0175774
0.0186855
0.0200039
0.0167224
0.107817
0.106063
0.108742
0.0337327
0.0352932
0.035206
0.0357323
0.0346691
0.0362104
0.0746033
0.0776365
0.0234833
0.0243905
0.0956679
0.0651693
0.090305
0.0891126
0.0829166
0.00387184
0.0684477
0.0677529
0.0682216
0.0459757
0.0152968
0.0364022
0.0812722
0.0717823
0.0671207
0.0896651
0.079142
0.0799899
0.0790879
0.0533428
0.0548565
0.000272454
0.0546598
0.039944
0.114996
0.113064
0.113669
0.114429
0.0597622
0.0608635
0.0605936
0.0600034
0.102856
0.103835
0.102158
0.104407
0.0376659
0.0382873
0.0387949
0.0370841
0.0642055
0.0636977
0.0643298
0.0635044
0.0439719
0.0447034
0.0424714
0.0300933
0.0353795
0.044427
0.045853
0.0446612
0.123606
0.12242
0.0555547
0.0266891
0.0944718
0.0950101
0.0954132
0.0315499
0.067536
0.0663259
0.0649627
0.0686921
0.0656019
0.0629901
0.0620079
0.0623266
0.0626796
0.0481909
0.0447969
0.0470301
0.0457054
0.088479
0.0880775
0.0887396
0.0877826
0.0763093
0.0747223
0.0751614
0.0758546
0.0668361
0.0668869
0.0671917
0.0664958
0.0325488
0.0304754
0.0320125
0.03089
0.0422361
0.0410547
0.0432801
0.0419538
0.0415775
0.0431481
0.114508
0.117273
0.115725
0.0729127
0.0446873
0.0435137
0.0439097
0.0410726
0.0380812
0.0404205
0.0377814
0.0386336
0.036913
0.0375906
0.0249936
0.0636133
0.0630999
0.000257765
0.0477246
0.0492495
0.0480439
0.0488618
0.0663858
0.0514532
0.0608717
0.039983
0.0042488
0.00443916
0.00425477
0.0423706
0.042993
0.127943
0.0395515
0.0390131
0.0553544
0.054316
0.0552789
0.0429415
0.0433325
0.0431019
0.0435802
0.0471648
0.0478817
0.0473866
0.0584291
0.0602524
0.0419747
0.0438651
0.0427344
0.000225551
0.0425851
0.0428818
0.109992
0.108488
0.0681512
0.0694532
0.0666568
0.0707718
0.0307303
0.0338126
0.0346954
0.0370422
0.118772
0.117621
0.0473381
0.0471135
0.0480233
0.0464635
0.0409234
0.0406311
0.0392225
0.110666
0.108108
0.109249
0.109455
0.085716
0.0848784
0.0860396
0.0844094
0.0829811
0.08435
0.0842248
0.0830062
0.0758646
0.0762533
0.0749646
0.0329381
0.0336275
0.0338786
0.0325693
0.0323156
0.0337111
0.111423
0.0184449
0.0210298
0.0204285
0.00111173
0.0432174
0.0422393
0.0425021
0.07485
0.0731436
0.0811268
0.0820033
0.0807853
0.0822483
0.0234669
0.0211545
0.0866718
0.086406
0.0858769
0.0871698
0.116638
0.11761
0.11807
0.116109
0.0446505
0.0454712
0.044054
0.0461789
0.0488317
0.0489947
0.0487476
0.0419115
0.0429481
0.0432162
0.0415165
0.0754764
0.0759459
0.0752798
0.0539665
0.0884137
0.0876486
0.0885282
0.0876031
0.0242853
0.0290977
0.0140643
0.0113033
0.0580673
0.00461996
0.00329522
0.00302298
0.0291894
0.0355196
0.0115172
0.000628473
0.000856306
0.000596015
0.000292398
0.0285769
0.000383116
0.000444908
0.0104096
0.0102672
0.0363275
0.0112908
0.0103279
0.138816
0.0169538
0.128892
0.0143709
0.0304629
0.0304562
0.00737103
0.000521833
0.0814927
0.0139972
0.00596961
0.00631312
0.00985895
0.10383
0.13705
0.0159848
0.0170504
0.0297393
0.00284195
0.08932
0.137258
0.0599108
0.122625
0.11919
0.0495402
0.00336504
0.0150005
0.000394805
0.000589825
0.000562793
0.0249204
0.0234002
0.00682982
0.0252524
0.00276447
0.00324704
0.023163
0.000624318
0.0563277
0.0302871
0.138666
0.138545
0.000464496
0.0227096
0.0217104
0.0128832
0.00808037
0.0219369
0.0215229
0.0223416
0.0474669
0.0492054
0.00678374
0.0503845
0.137523
0.137178
0.0211878
0.000561573
0.00515829
0.00416581
0.0476752
0.0121323
0.0184951
0.00049242
0.0194348
0.0237933
0.130157
0.00311667
0.015396
0.0133293
0.13839
0.114263
0.00427454
0.0803305
0.0379899
0.00778061
0.135175
0.0244227
0.00232735
0.0353262
0.0342296
0.00896006
0.0204318
0.0212592
0.0230684
0.0186914
0.0265067
0.0251591
0.0260593
0.0366439
0.00175427
0.0198377
0.0349412
0.13615
0.017453
0.118979
0.0152392
0.128744
0.000623254
0.0221895
0.0211196
0.0221364
0.062262
0.0269662
0.0278383
0.00587153
0.000369822
0.00143615
0.00269238
0.0750584
0.0707004
0.0176909
0.0286382
0.00538197
0.00670894
0.00259141
0.0296153
0.0312834
0.150726
0.00218307
0.137218
0.137638
0.05394
0.0154443
0.0352249
0.0568777
0.0560243
0.0346598
0.0331947
0.0348034
0.0283661
0.0082936
0.00408496
0.0371617
0.0156784
0.0219179
0.0294911
0.0299926
0.0281985
0.00522351
0.00822614
0.0456929
0.0451122
0.0304065
0.02803
0.0282398
0.0352541
0.0364027
0.0515363
0.00388195
0.00397063
0.0468978
0.138572
0.00393038
0.00517006
0.00462758
0.00314901
0.00424243
0.00427322
0.00560497
0.0180231
0.00385752
0.00440038
0.00584684
0.0042793
0.00579603
0.0305994
0.0299117
0.0306864
0.00449741
0.00622941
0.0357281
0.000555092
0.000878843
0.0308559
0.00300093
0.0196016
0.0176245
0.0243494
0.0232967
0.00768577
0.00866092
0.00554019
0.00719946
0.123332
0.00503155
0.078521
0.0776114
0.0773926
0.0381857
0.0229596
0.00630354
0.0203641
0.00586416
0.131238
0.0253518
0.00254962
0.0118907
0.0111448
0.0136089
0.0100895
0.00685433
0.140006
0.0224508
0.0242454
0.00412608
0.00329008
0.0585458
0.0685422
0.154659
0.148752
0.00744179
0.0182353
0.138782
0.0222331
0.022299
0.000572874
0.00785095
0.0141935
0.117657
0.120184
0.00888211
0.050714
0.00956002
0.00829658
0.00943898
0.00440202
0.0423278
0.0444331
0.046064
0.00122031
0.0352664
0.130795
0.128423
0.114982
0.0552256
0.0189997
0.0379626
0.0322724
0.0668419
0.139189
0.139066
0.0226027
0.137503
0.00173797
0.00218459
0.00917836
0.0252753
0.0116403
0.0410314
0.0411071
0.0396121
0.0396873
0.0044402
0.00276368
0.00196093
0.159134
0.051578
0.0116906
0.120971
0.129663
0.130205
0.0359435
0.0721046
0.0700665
0.166425
0.148331
0.00142266
0.00821019
0.0587288
0.0577194
0.00661741
0.00605318
0.0307469
0.0300042
0.0817035
0.0797946
0.0518542
0.0539499
0.0419144
0.0141707
0.0131267
0.0579137
0.0366616
0.0363564
0.0301617
0.028803
0.0356569
0.0166897
0.00478764
0.0250027
0.00482366
0.138532
0.0106708
0.011918
0.0240085
0.0379658
0.0235158
0.0238459
0.10114
0.0941941
0.109491
0.0241219
0.0547249
0.0149183
0.138152
0.0335389
0.00175366
0.0374174
0.00367649
0.0037925
0.137749
0.0305487
0.0304259
0.0154649
0.137731
0.0909849
0.0983033
0.0220491
0.0381211
0.0386968
0.0785703
0.0794108
0.0360487
0.0333178
0.0362067
0.0340919
0.0357453
0.0714383
0.0628896
0.136079
0.136601
0.0593643
0.0592118
0.0676618
0.00723128
0.00620237
0.0708675
0.0166096
0.136808
0.0639188
0.0659888
0.0678638
0.0382018
0.0366829
0.0378598
0.112497
0.147136
0.139362
0.0693292
0.0680575
0.0687008
0.122468
0.00598321
0.0248791
0.0205274
0.0154312
0.0151031
0.0988329
0.0247747
0.0312784
0.0341337
0.0196949
0.170511
0.0130204
0.0387812
0.014237
0.0186323
0.010478
0.0140753
0.0144588
0.121711
0.124151
0.123091
0.027593
0.0280429
0.0117086
0.0684231
0.015265
0.0145965
0.0329835
0.0295635
0.0291009
0.0373275
0.0720288
0.0294227
0.0310941
0.133038
0.127031
0.00185583
0.00242213
0.138694
0.0163644
0.00817064
0.0125179
0.119035
0.117534
0.138558
0.110019
0.138666
0.132961
0.132198
0.020276
0.0235867
0.12608
0.126974
0.124867
0.125482
0.0394885
0.0374213
0.0962068
0.0984029
0.125748
0.12354
0.00321972
0.118862
0.117762
0.0308203
0.138914
0.138744
0.138689
0.0891218
0.0849931
0.137673
0.139693
0.138333
0.0546007
0.0249707
0.026559
0.026499
0.0422339
0.0418986
0.0424459
0.153407
0.154618
0.0563201
0.0248524
0.0260227
0.157867
0.155349
0.0503111
0.0507942
0.0286086
0.0314842
0.000406548
0.00264757
0.0515188
0.00846915
0.0100808
0.0106877
0.0763766
0.000859848
0.00131108
0.0548015
0.0554059
0.0177253
0.00807206
0.00771437
0.00892331
0.00560348
0.0234401
0.0239918
0.0261571
0.113254
0.11497
0.0186116
0.0141976
0.0152206
0.00621764
0.00706184
0.129514
0.127708
0.13395
0.142561
0.150614
0.109479
0.0383675
0.0377472
0.032309
0.036052
0.034783
0.0512191
0.060735
0.0437568
0.0426312
0.0195077
0.0207625
0.138681
0.138607
0.242683
0.22711
0.0296711
0.00805788
0.0320787
0.0106586
0.0116979
0.0102804
0.0101589
0.00720386
0.118075
0.01754
0.021168
0.0298143
0.0276082
0.060458
0.0617366
0.0379528
0.0371006
0.0344992
0.0320653
0.0167292
0.0104555
0.0277566
0.00859696
0.0337237
0.136649
0.0129556
0.0137787
0.143319
0.14962
0.0270703
0.0204742
0.0183831
0.00950933
0.0387706
0.039985
0.0504962
0.0401253
0.0395811
0.0592535
0.0242113
0.00057724
0.0411669
0.0417147
0.0166593
0.0130694
0.0155778
0.0825342
0.0833183
0.0824086
0.0491488
0.0666474
0.0648329
0.0700102
0.0684442
0.133672
0.0976218
0.0983496
0.031076
0.0331094
0.0327988
0.0530688
0.075561
0.0112749
0.139918
0.139676
0.139885
0.13516
0.0443999
0.0208307
0.0224087
0.0290985
0.0258287
0.0580133
0.0346265
0.0368619
0.0517371
0.0561021
0.0378293
0.0281715
0.0986691
0.104306
0.108749
0.0293117
0.0291295
0.0428667
0.0431718
0.0218503
0.0732346
0.0714718
0.055097
0.128279
0.0378742
0.00537342
0.00603788
0.135323
0.0238838
0.0659912
0.00352113
0.0212865
0.0197671
0.0214969
0.0197369
0.0260603
0.0451781
0.00994438
0.00840062
0.00769856
0.0954468
0.0328632
0.000957068
0.00155423
0.0656231
0.13827
0.0647145
0.0650886
0.0400713
0.111792
0.106798
0.0196358
0.0204056
0.0449592
0.0425799
0.0442793
0.0602085
0.0210102
0.022042
0.140027
0.140515
0.0358548
0.0220339
0.0201815
0.0346902
0.138786
0.0918946
0.089992
0.03675
0.0722489
0.032748
0.00300039
0.00240791
0.00505937
0.045376
0.0835613
0.00346584
0.183274
0.00243758
0.0045434
0.00690889
0.00432269
0.00363784
0.00381602
0.00268809
0.00362472
0.129009
0.0365302
0.0380429
0.0200389
0.0354568
0.0639714
0.0627299
0.139371
0.1395
0.139295
0.0714986
0.0951678
0.0937161
0.0680521
0.0660015
0.063631
0.0307937
0.0308284
0.0668538
0.0649836
0.0123828
0.0136658
0.0151716
0.145596
0.150648
0.138178
0.13798
0.0483685
0.120024
0.116249
0.0310658
0.0332855
0.137587
0.137264
0.00399401
0.0615979
0.0608783
0.139085
0.138809
0.00911173
0.133924
0.0659804
0.0725998
0.0557039
0.0253214
0.020563
0.00394587
0.0232673
0.0938448
0.0705782
0.0711531
0.0145914
0.0174065
0.0184357
0.00258446
0.0689184
0.0695745
0.0608425
0.12465
0.125162
0.126131
0.0385966
0.0425601
0.0443385
0.045031
0.0443289
0.0370904
0.10575
0.107413
0.0450428
0.0392469
0.0401012
0.039004
0.0424214
0.0432644
0.00133922
0.112706
0.113788
0.115808
0.0139356
0.0128166
0.0436743
0.0435932
0.136708
0.136674
0.0250209
0.0275847
0.126569
0.127412
0.0385344
0.0389708
0.0380776
0.231505
0.187765
0.0800962
0.0783658
0.0120864
0.0135377
0.121271
0.0407709
0.0420873
0.131407
0.130614
0.129798
0.0212116
0.0230628
0.138467
0.13818
0.0434299
0.0423779
0.0432618
0.0283733
0.0263938
0.108071
0.107691
0.106601
0.0107504
0.0136542
0.0455875
0.0460646
0.0148843
0.138072
0.138251
0.0409685
0.1269
0.123018
0.0167046
0.0624954
0.0657604
0.0350494
0.0354614
0.0366526
0.138264
0.118383
0.103365
0.109836
0.115209
0.0208591
0.0739796
0.138205
0.0203947
0.00189569
0.00339557
0.0411338
0.0408544
0.0150209
0.0705233
0.0360013
0.0333525
0.120535
0.131915
0.0429811
0.0449296
0.0189894
0.0634117
0.0675717
0.0135244
0.0415541
0.040839
0.0647927
0.00467122
0.00471189
0.121649
0.0467495
0.0471852
0.0457689
0.0354291
0.0408079
0.03672
0.0494734
0.0506499
0.00660362
0.0514739
0.0508623
0.0413909
0.0396176
0.0395674
0.00818834
0.00723
0.0908172
0.0898349
0.0887984
0.0360935
0.0330303
0.0528742
0.0467618