/*--------------------------------*- C++ -*----------------------------------*\
  =========                 |
  \\      /  F ield         | OpenFOAM: The Open Source CFD Toolbox
   \\    /   O peration     | Website:  https://openfoam.org
    \\  /    A nd           | Version:  6
     \\/     M anipulation  |
\*---------------------------------------------------------------------------*/
FoamFile
{
    version     2.0;
    format      ascii;
    class       volScalarField;
    location    "1808";
    object      p;
}
// * * * * * * * * * * * * * * * * * * * * * * * * * * * * * * * * * * * * * //

dimensions      [0 2 -2 0 0 0 0];

internalField   nonuniform List<scalar> 
29884
(
2.79216
0.0973672
0.517737
-2.66434
-0.164759
2.46033
0.112701
-4.39425
-0.835583
1.0565
2.79924
0.642043
-1.2774
-2.36841
0.0352457
-1.92079
-0.323787
-2.19622
-4.43034
-2.95663
-3.45943
0.537504
0.272286
3.37751
-1.58085
1.13139
-0.748254
-1.341
0.322067
0.404541
3.10126
2.67477
-0.768685
5.28422
1.82169
1.6873
0.845033
2.97816
1.76704
1.01451
0.73906
-1.71489
3.04297
5.04745
-3.63521
0.520348
-2.25739
2.12524
0.593884
2.43506
3.09061
-0.310482
1.21892
-0.845438
-2.90897
4.33236
-2.69226
-1.66955
-3.70816
-0.634593
-0.313036
-0.796799
-0.317354
1.00962
2.06731
-1.96314
1.32766
1.56796
0.728244
1.43516
-0.434893
-1.16877
7.8665
0.687267
0.523112
1.48102
-2.77858
-1.3249
-2.60153
0.822702
2.12094
-3.28297
-0.328433
2.05065
-0.241768
15.1753
0.663909
-0.61735
0.172099
18.9917
0.552581
-2.32043
15.0013
20.3651
2.68848
24.6045
1.16919
1.28301
0.0341704
20.2846
1.54394
1.70244
0.16254
0.555537
0.368012
-1.86378
18.3297
18.8447
3.08651
1.63858
1.27681
24.6115
-0.0666352
-0.201036
-0.197856
1.89492
2.3911
0.0173975
3.83127
3.35898
0.809706
2.52047
2.08073
2.68663
-0.355505
3.51024
1.1884
1.46764
-0.722616
2.96713
3.18619
2.84955
-4.31499
-2.30156
-0.201134
-0.654072
2.19441
0.367719
0.348132
0.629386
0.358513
3.08612
1.9212
-1.93775
-2.10145
-1.87601
-1.54524
2.44716
1.94297
2.12439
2.6535
16.5373
17.9384
0.727866
0.624763
1.01207
0.573144
1.17152
0.846514
0.625472
0.947438
3.42535
3.61276
2.72774
25.585
25.4967
-2.48166
-1.08042
1.01705
-5.92082
-2.84874
1.18823
1.20808
-0.377578
-0.222463
2.73252
3.04192
-2.90948
1.909
1.76011
1.90771
5.32363
5.37849
4.72742
-0.159052
-0.100863
1.21168
1.07321
1.32137
3.19223
0.574053
4.26373
4.8422
-0.3432
-0.427565
2.54519
2.59155
0.673211
-0.0986668
0.0877914
0.289337
2.54204
2.43621
1.63093
2.49688
3.92936
0.113283
-0.273121
-0.391314
-0.765591
0.572176
-0.587667
-1.78016
-3.57774
-1.63388
17.8384
2.52976
19.6786
-0.15765
21.6683
21.9616
-11.1506
2.29584
0.134678
16.614
22.0608
19.2062
21.5254
12.214
-7.22307
4.81969
19.6127
18.1483
-7.21675
-7.55734
18.3083
18.4558
2.73188
-3.6128
-3.42234
-4.02978
24.3471
18.3739
-6.45404
-4.24932
2.92389
18.5364
19.7754
-8.72501
-9.83411
-5.63995
0.549432
2.59612
2.44151
22.5509
22.2351
21.1842
21.5693
-10.6729
-9.75351
-0.607814
2.94971
-6.53401
22.8908
2.18082
19.9394
-9.48971
2.22657
1.82552
20.0428
1.10793
1.2523
21.0164
19.5455
19.6488
17.6051
18.3465
21.2381
20.9509
-5.03165
-0.79423
18.3475
1.65694
1.40692
3.75136
2.84989
2.5028
-9.16567
25.7133
1.80753
22.1718
18.3163
18.2954
-5.78948
-9.4864
-9.53963
3.07396
18.295
18.3729
-6.02711
-5.15539
18.9778
18.828
18.9926
21.2199
17.4206
16.4015
6.53305
2.61669
2.85522
2.85132
3.13076
20.7829
-5.43605
-5.82594
-9.45491
-6.33849
18.8224
-10.677
-9.76999
-10.2957
20.234
20.795
21.0102
-10.2054
1.29964
20.0279
20.6109
20.6732
21.0505
2.14192
1.73225
1.70712
1.7505
18.4192
18.3594
2.18954
-3.82075
22.0758
22.0131
-7.38346
-3.22307
21.8742
8.03837
0.398608
22.2884
21.8606
22.0238
22.0539
19.561
19.2419
20.1752
1.15318
1.25439
0.840753
20.6385
21.2166
21.3494
21.3417
21.2652
20.074
19.0991
6.13168
0.408796
2.35531
2.21632
2.7613
2.64509
25.0008
22.8685
-6.60702
-5.77054
0.563388
0.687517
0.533998
2.92987
2.29858
-7.83584
-9.70027
-10.126
-10.1374
11.7034
4.05885
4.0267
3.58833
-5.73772
-6.414
-6.23979
-5.51256
16.4047
17.5744
18.6134
17.0773
-6.82837
-7.34297
-6.85668
18.4333
18.7575
-4.15016
-4.11014
17.7512
18.9033
16.2621
17.5696
16.6718
16.3801
19.5034
2.98577
3.20298
1.98519
2.26451
18.1741
17.9557
22.1253
22.2987
22.5032
19.6367
-0.0592851
18.0429
17.5898
18.5382
-3.55638
20.6841
20.5383
21.4197
19.6933
19.1332
18.8783
18.4321
20.7294
20.319
20.4616
19.8915
-3.99372
18.2555
19.2127
19.1741
19.4554
-4.50763
-4.95324
19.5359
19.2117
18.72
18.9676
3.84392
3.46867
4.01488
-7.11874
-6.02556
-7.52751
-6.88992
-0.358016
-1.56584
14.3649
14.1987
1.15637
1.20421
1.18874
0.946883
-1.2372
25.2026
6.64394
5.92463
0.285541
-6.85078
-6.46099
-6.92389
-6.3668
16.2859
15.3506
15.6764
14.5517
1.53095
1.39659
1.53938
0.887115
0.930447
1.14411
0.725739
0.938267
0.866263
3.60404
3.39436
3.472
3.87962
-5.99585
-5.44047
-6.03672
-6.23249
2.90944
2.58275
2.77363
22.066
22.2799
22.1213
21.5754
4.14087
4.91874
4.37221
24.4332
25.2405
1.34043
24.8832
10.8139
0.803574
0.775375
24.5317
24.3896
0.815116
0.842894
0.8472
1.29975
-8.36749
0.870097
-0.47628
24.7023
24.7315
2.3041
19.7674
-0.04354
0.952478
-4.17024
-5.87936
-1.86339
-2.07693
23.453
-3.59528
-4.07532
-0.313126
1.94591
-5.5533
-0.0272242
0.173711
0.186748
0.319272
-1.82848
3.12686
3.18777
-2.7575
-2.65369
-2.83096
-0.122963
-0.370371
1.1774
1.22189
1.03326
0.979238
4.65985
23.1525
2.27321
2.24881
0.0290624
1.09706
-0.426929
0.903517
0.976875
1.01219
25.154
1.37357
1.31368
-8.42933
-9.34438
-8.31119
-2.35893
-6.46038
-4.93952
-0.401315
-0.3542
-0.374612
14.624
13.812
-3.01751
-2.64639
-2.39727
-1.70928
7.25378
-4.67183
-1.0482
-0.879058
-2.42738
-2.72628
25.0288
0.285088
-1.15867
14.4491
-0.202752
0.120501
25.67
18.7406
19.3754
2.14991
1.05618
1.1265
-7.31484
2.33456
6.33652
7.10391
22.3041
22.119
3.95048
4.46354
4.26634
0.988185
0.934093
23.4742
1.23402
3.49925
3.71542
1.83489
1.64064
1.49823
2.36577
5.6524
5.0318
6.21024
5.56339
2.77842
0.433511
1.59899
-0.831187
1.50688
0.228717
0.816303
0.939031
-5.54547
-6.66558
-1.56739
-0.176812
-0.556669
-1.05624
9.32384
10.5621
19.4609
19.874
20.2723
21.4716
0.787745
3.01016
2.80296
0.650349
1.29185
17.4111
16.7159
-3.72092
-3.98452
-3.25732
1.98122
0.887882
3.12733
3.48172
6.88696
3.73024
4.36732
-9.9631
-10.4277
1.08234
1.25135
1.05749
1.28557
-2.59998
12.7753
12.0321
11.2131
1.58174
1.68205
1.79399
1.75772
1.89701
0.93442
2.885
3.06179
-3.43814
-3.29053
-2.91584
-2.06336
-2.3038
-2.58658
-1.33913
0.564488
-1.94352
12.943
12.0247
10.8768
23.3762
23.27
4.92873
5.37782
19.8033
20.0393
-0.681926
-1.1745
-0.416404
19.5813
19.8859
8.25792
7.63366
22.8384
16.6986
-8.35486
7.25598
3.41687
5.44418
23.2646
4.5292
-24.9293
-8.71137
-19.1903
-1.87378
22.7776
-5.90766
-12.0951
20.2096
-23.4386
-5.60332
-5.73252
4.41998
4.55533
3.72361
-0.855897
-1.42312
7.04282
-4.52059
-4.91666
-8.588
5.33914
4.77118
-4.98342
-4.19953
-3.83129
-1.3996
0.236663
-0.00344385
19.2336
3.72811
4.44415
-3.30178
24.3745
17.4578
17.1361
23.4301
-16.6619
4.04272
-15.5659
-11.3418
23.7204
0.46602
-0.784146
3.03661
21.3329
-11.8163
-11.6187
4.69423
-3.43566
-2.43864
-3.69864
-2.16203
-4.32122
2.7661
13.6781
-12.5664
4.02512
18.8297
18.9969
1.84554
1.74806
-10.0563
-2.45848
20.6071
-7.85549
-8.80647
-1.53454
-0.468444
3.57021
-34.375
-3.65866
-1.30933
2.56556
17.5277
17.5969
6.05205
-6.63736
-6.86855
-7.63007
-34.7415
0.216725
-10.8538
-10.5693
22.5365
0.937035
0.432271
22.8423
22.6619
-13.1313
-13.1932
0.240844
-11.9565
19.5076
-0.720236
-1.30844
2.11064
-7.50797
14.5216
-0.35857
-0.606007
-10.1635
-3.98837
-2.8116
-7.85249
25.2652
16.1905
-11.9062
6.17944
5.8119
16.9218
17.0997
-4.50189
-4.17652
-13.8638
-25.1432
-6.1024
-10.3389
-10.503
19.8301
-3.52042
-13.1511
23.5498
-18.3662
1.80012
-5.60833
-5.80385
3.05928
2.98112
-0.19015
16.3568
4.06676
-25.4855
-12.9313
-13.111
2.76559
-10.5004
-2.11342
-0.659393
-14.1453
-14.4004
6.39584
16.954
22.1628
-3.63121
2.26499
1.94999
16.5956
16.5199
-2.22906
7.66457
-1.59087
-1.48228
-6.47967
3.44514
0.533771
0.0938314
8.22327
9.39114
19.2987
22.5403
22.7558
22.7256
-3.42477
-2.19114
-10.3342
18.152
18.3486
13.5285
0.699617
15.8007
23.0928
15.2016
14.7101
-7.73923
2.10338
-1.15929
16.2723
16.225
-4.87512
0.96748
-11.6074
4.47402
-12.1102
5.05285
4.90211
20.1959
1.35245
-16.4199
0.690765
-11.2856
-0.935255
-0.0387804
16.3059
15.9333
15.7713
4.84108
4.23457
1.99334
-8.89813
-8.97662
16.9144
1.87828
1.49181
1.25269
-0.189405
-0.55086
3.3097
-9.58561
-10.4497
-24.8449
-3.64257
-3.08693
-2.91616
7.95483
7.74488
5.6792
6.00888
-3.9305
-4.35157
-14.3164
3.51841
-2.57195
-2.86657
-11.9249
6.95938
-22.3556
16.0552
-11.4291
-11.165
-20.291
4.26361
-12.3123
1.47025
1.78651
-12.5281
-10.8348
0.179434
16.7611
-16.9783
4.37691
4.77385
-11.8112
15.2497
-11.0279
24.5946
2.6815
3.13689
4.0932
2.19253
2.77547
0.274096
0.488126
1.60949
3.29068
-17.8984
-16.6741
6.07292
2.18649
1.38834
-0.169999
-1.75409
-2.09653
1.85088
-8.44473
-9.55388
4.82552
4.50897
-4.58268
-13.352
-13.6368
2.71747
3.00545
24.3422
-6.75689
-6.36081
-1.97384
21.9643
-2.53778
-2.226
-5.80597
-5.61318
1.47571
1.73214
2.57444
17.8128
18.3138
-11.1568
-5.22238
1.67414
-11.1186
-10.9365
-11.2539
19.24
18.9759
-11.944
2.4184
-19.2379
-19.6012
6.22713
5.7513
-12.0788
-11.8875
-12.1152
16.2617
16.4917
-5.712
-11.8835
-3.5884
4.83557
-7.66459
-7.8144
18.6046
-11.9867
-8.3026
-10.055
4.85973
23.2625
0.271011
-0.333327
2.89907
2.33188
-16.0609
-12.1838
-11.6274
-10.0743
-9.25362
2.29927
2.27103
2.16195
-13.1932
-12.3885
18.6793
-4.62543
-4.32854
1.78128
-8.24315
-8.00004
-4.19344
-3.63494
1.9796
16.3141
16.2511
-12.944
-12.3936
4.07529
4.40141
3.93739
4.84532
5.56015
16.3855
6.55223
23.2435
-8.7734
-9.16577
-8.5748
-8.50431
-7.60987
-8.68801
-11.7747
-11.8851
-1.08259
-1.10644
-1.30497
-0.551507
-1.95874
-6.18345
-6.57156
22.9259
18.9737
-12.2234
0.460478
0.416381
0.00815039
12.9154
-0.321408
1.98546
2.26571
0.560088
0.704967
1.01097
2.19787
2.97731
17.0645
16.7001
16.8245
17.1617
-2.89377
-3.47157
18.7311
2.92806
2.89006
3.13284
-0.0653299
2.22177
17.9466
-4.87662
-4.353
17.8709
18.2715
17.4929
0.677991
-2.66058
-2.43188
-0.609894
1.53411
1.9257
-0.810859
3.11014
16.7616
16.8215
16.5951
-7.90596
-8.50437
-7.65384
0.709196
16.7299
4.47204
3.80233
-0.633169
22.4391
7.52405
7.36908
7.53049
-10.3276
18.9735
-12.3117
17.4229
17.6136
24.1115
25.612
2.34062
-4.66683
2.50108
-5.15198
-4.77255
-0.260419
15.7752
0.12241
4.40276
-20.3622
-0.275223
0.0721807
0.287691
17.8085
2.28281
2.27908
2.3539
4.04622
4.82883
23.7488
17.5305
17.7208
-0.648991
-0.412969
-0.0468286
21.6799
22.3446
3.00901
18.1912
18.3779
18.2896
17.7098
17.4484
17.663
1.79704
18.5782
18.6838
-12.1931
24.0956
3.61455
3.9502
-0.173957
-0.127041
5.16132
0.268525
-0.225939
-0.719853
2.16023
2.0709
-9.34694
1.06231
1.34922
1.41332
-0.0278628
0.331538
8.11802
2.1366
6.68255
-2.78034
21.0755
22.6653
-1.39512
24.3195
-11.5007
3.87245
16.4586
-5.67159
17.7966
18.0846
14.9677
14.9142
1.34014
0.621349
-2.33871
-2.20482
-2.41014
-0.695282
-0.299792
-0.554353
6.6123
6.39635
21.1674
21.7724
24.568
-1.47898
-6.4189
2.79956
3.01385
2.97273
3.41336
3.57582
16.4087
16.249
1.39076
1.34499
-1.20496
-0.190227
-0.380599
-0.810806
17.9215
0.533611
1.39828
1.72272
2.14795
1.60453
-13.8494
-14.2948
-13.7802
24.6152
17.7594
17.142
17.9231
18.3865
5.92932
6.18976
20.7982
1.74633
1.97109
5.9619
-10.1416
-10.1616
-9.19522
16.8343
16.8232
16.6636
-9.73448
-9.91768
0.319436
-12.4116
19.6636
19.5983
13.8618
13.7004
2.31815
2.50335
2.14314
1.98239
4.78819
4.59488
14.8264
-10.6545
-11.0963
-11.6376
3.01075
2.62849
25.6283
18.6389
18.551
-4.63051
-4.89057
24.947
22.2655
22.7095
22.8329
22.8682
-3.78823
-4.23111
-14.974
-13.4435
-16.8118
-11.8131
22.5533
-7.95148
-8.17552
-8.28202
-10.4973
-10.2427
-10.1885
-9.31109
25.0744
25.1887
22.922
22.7833
24.7966
22.3165
18.4424
18.1421
20.9768
-7.66186
23.6887
1.73683
1.5324
1.72841
2.85067
2.84366
2.37441
1.09356
1.26911
1.58086
2.08445
5.37823
-9.98646
-10.0672
-9.45378
16.5928
16.1341
16.5685
1.01126
1.28565
0.928061
1.89641
2.06027
2.30239
7.98823
3.08259
3.38449
3.22416
-1.38322
-1.02766
-12.3755
2.93844
2.35691
2.50996
25.1304
24.9368
2.2264
2.24764
2.54236
2.84916
-11.3531
1.44117
1.36336
0.675791
1.46603
1.8942
1.97651
1.78405
-2.73359
-2.53443
-2.88922
-2.33876
-9.90662
-11.8938
-11.8101
-11.7622
-11.8111
18.2969
17.5218
0.456436
1.18143
4.31033
3.40589
-17.5192
7.93664
-11.8522
-12.7349
-5.9086
25.4043
-11.485
-12.0424
4.18611
4.75973
3.39763
0.515255
0.691487
23.1051
-7.73385
-7.75095
-6.86593
-8.69224
-9.04325
-8.74699
-10.5849
-10.6831
-10.685
-5.41936
-5.6853
17.8348
17.4714
-0.0611421
-0.189786
0.480646
25.3439
20.4154
23.8239
13.9932
-11.8086
-11.9284
-10.9734
-11.8287
-13.9005
17.5918
17.3388
17.1195
-7.57111
-6.78331
-7.34088
-6.62826
-11.4755
-11.2389
-11.4308
-11.5121
22.4934
22.8304
22.4018
22.3808
-8.96171
-8.1848
-8.8605
-8.19929
13.778
-5.88338
2.21443
2.09354
1.83503
2.17729
-2.36558
-1.94083
-2.11274
-11.7503
-10.7419
-10.2694
-10.8751
0.485359
0.638058
1.03013
2.04343
2.14938
1.88258
1.86315
1.52988
17.4765
17.9035
17.4011
17.0054
2.25038
2.12031
2.09801
2.1509
-9.63145
-9.89384
-10.0837
-4.72559
-5.49306
3.46469
3.8049
3.17891
-13.2377
-13.8057
-1.62246
-1.46799
1.17633
1.65602
0.660158
1.22921
0.349646
-0.242238
0.302686
-5.94049
-6.16074
-7.09338
-7.46785
-6.98115
-6.91729
15.8478
16.1012
-1.37395
17.6876
17.6868
19.663
0.589105
0.91571
1.27475
0.9972
17.629
-3.50154
-2.69131
-2.62578
-2.00763
2.61156
2.27157
16.4026
16.6399
16.2397
16.4552
-4.06874
-3.67661
-4.50634
-7.22658
-7.62676
-7.72738
17.7199
17.4714
18.284
18.1055
-8.02573
4.91949
15.7829
-8.0795
-8.37952
-7.10626
-8.07378
-23.0435
5.97676
-22.5855
-22.1491
3.6045
3.89961
3.16019
3.37275
-2.61064
17.5407
17.8238
3.73017
3.50647
3.96693
0.0900109
-0.223931
-11.953
-12.0029
-11.9159
-9.19266
-8.8867
-9.13949
-8.70216
19.3091
5.68624
5.58707
-5.75183
-5.9648
16.8194
16.9931
16.8508
19.7382
-5.35597
4.70732
-0.987778
-1.26576
-1.07625
0.996281
-10.08
-10.5811
-9.59728
1.39985
1.51789
1.18323
18.2621
18.3503
2.68239
2.30764
-8.05274
-7.7763
-8.52438
4.87876
4.57632
5.0517
-6.93651
-7.17048
-6.8789
-7.22237
-7.41965
17.8148
17.2892
17.5926
-4.42665
15.5316
15.2696
-2.23822
-2.38353
-1.25944
2.14429
1.50536
-12.3965
-12.3471
3.78932
3.48681
19.0302
18.5754
4.37848
4.12236
2.86476
2.44927
1.35533
1.3832
0.793955
0.819479
1.28639
1.28094
17.7343
17.5144
0.168273
-0.387897
-0.55707
-0.197631
-1.25931
18.2868
18.1069
17.992
22.5621
22.6774
22.3158
22.6855
17.031
17.9669
17.9766
17.811
-0.28356
-0.77662
18.7829
18.9003
3.09381
3.11491
3.55908
3.45642
3.31245
-12.2559
-12.186
-12.1727
-12.0703
20.256
2.5304
2.34373
19.4399
19.2924
18.9926
19.3741
-0.710418
-0.662879
-1.13751
-6.01693
-6.19268
-5.73333
1.45716
1.95238
0.952526
17.8009
17.8865
18.0452
18.1771
-4.48402
-4.17122
-3.85109
14.6385
-13.3891
-13.1042
-12.6196
-0.00291778
-8.2235
-9.15295
-8.69073
-8.81799
-0.583173
-0.848893
-0.0234492
-0.437853
2.60761
-10.8096
-10.7882
-10.2841
-10.7179
2.62882
2.24203
1.99849
1.83791
1.63123
1.62949
1.93159
1.64732
1.31522
23.1944
17.7958
17.8958
-12.3635
-12.3644
24.3522
-6.26207
0.183577
-0.310394
-0.972325
-0.662029
-1.86806
-2.3853
-1.71411
-11.8088
-11.3143
-27.3063
-26.4399
15.6676
15.9932
16.1969
16.3656
4.52588
2.57687
2.3067
2.68509
-25.6799
16.4081
16.5454
15.8474
15.9921
-9.42831
-9.09769
-8.80559
-8.15217
0.726919
0.778466
0.674494
4.52166
-9.22632
-8.9654
-9.29068
-9.3236
-14.4857
-13.8874
-12.3767
4.63905
4.4148
5.40183
18.2358
17.8317
17.843
17.8031
8.98052
8.9552
-3.1417
-2.19855
-1.73456
-1.82667
18.8314
18.5933
18.4261
-8.97901
-16.2343
-17.6514
19.1275
18.9703
4.70824
4.6789
4.91342
2.23761
2.20657
2.39851
-12.6294
-12.8276
-12.6217
15.975
15.6686
15.8553
16.3385
22.5283
17.6616
18.0257
17.4728
17.6915
-5.72602
-11.0282
-5.31595
-5.73323
-1.69335
-1.51978
-0.60898
-0.84088
3.03183
2.23845
2.117
2.07328
2.5581
-1.10021
-0.0120039
-0.760642
19.7546
3.21897
3.07702
3.16615
-1.83477
-1.06061
-9.33955
-9.4839
-9.41713
-11.0085
-10.4542
-11.0302
5.88342
23.1028
4.35423
21.7605
21.8461
2.09236
1.57862
2.18341
-5.88432
-5.82979
-6.10223
0.47349
-11.4501
-11.7415
-11.5758
18.7214
19.0249
1.37954
1.036
0.816118
1.118
4.12035
4.16095
21.7695
21.8226
1.35366
1.02693
1.63689
1.46775
2.21403
2.52808
18.6776
4.21806
4.39814
4.16604
-1.50209
-1.01701
-1.45226
-21.1763
-8.03453
-8.5836
-8.75034
-8.28667
18.6098
18.1403
17.9972
18.3053
-5.98425
-6.96846
-6.42055
-11.6802
-12.9443
-16.3098
-13.0952
-18.7824
-0.0711207
-0.23322
-1.28214
-1.02534
-6.95153
-7.50949
-6.96604
-6.17067
3.56839
3.35818
2.73337
3.06626
19.6379
15.4555
15.1579
15.4634
-6.91181
-6.51174
-6.76103
-6.97152
-14.4265
-12.9741
-10.3228
-10.1739
-9.45423
-5.49074
-5.14491
-5.38765
-4.46792
15.634
15.8612
0.585222
0.540132
-9.67357
-10.1089
-10.0875
-10.1207
0.928442
-6.37907
-6.02061
-6.32135
-6.09567
1.96577
2.14486
2.10496
22.8237
17.7435
-11.8845
-11.3389
-11.4369
-10.7457
1.24302
1.49014
-10.7083
-10.6802
3.42377
19.0622
1.78826
1.50795
0.436165
-5.72488
5.40699
5.11407
5.23609
-7.17805
-6.48566
19.0117
-10.3952
-11.6063
-10.7875
-13.7254
-0.230985
0.170547
-0.133249
21.5541
21.5064
25.7177
-5.01957
18.9291
2.25731
2.35688
1.83537
2.16138
-0.560472
-0.0577072
0.678918
0.307941
2.2043
2.23298
2.31721
2.30869
-10.8381
-10.2195
-9.67453
-10.5178
2.08578
1.99854
3.11447
2.15477
-7.67532
-7.1664
-8.24434
-13.7568
23.2665
-8.00267
-11.5746
-11.1044
1.0564
1.03559
20.4658
-15.3904
2.22858
2.66507
2.37336
19.5216
-0.383757
-0.773801
-0.248748
0.396959
3.77308
1.04163
0.571564
1.48351
1.77156
21.712
21.8462
21.146
21.4459
1.77059
1.87838
2.03152
1.50369
-0.612174
-0.948829
-1.27412
-0.844718
4.08125
4.2906
4.42671
4.04884
18.6244
18.5821
17.9126
18.2486
18.1577
18.317
-8.99771
-8.13392
-9.09253
-9.47193
-0.0543279
-0.179877
-0.48383
6.30115
-12.0485
-12.0876
-11.926
-11.6953
-11.6929
-10.5005
-12.0233
-12.7737
-13.1654
-13.4641
-15.9003
2.16287
1.66185
25.7302
18.2788
17.9698
17.8375
17.6108
-14.6827
-13.7105
-13.3585
0.615276
-5.5144
-5.85975
-5.32492
-11.5309
-11.6419
1.95899
-11.1198
-11.0734
-3.47051
-4.04825
-4.39005
-9.66031
-8.66446
-8.51764
-9.35146
-12.171
-12.2327
-12.1109
7.94215
7.00587
-9.05127
-8.17178
-8.69509
25.7426
-8.54748
-8.2283
0.95806
1.05589
-0.115859
0.998546
0.830735
1.07628
-13.591
-12.3301
21.04
21.258
0.4904
0.972514
17.929
18.0641
18.0437
18.313
-5.25129
-10.9916
-10.981
4.72512
4.85146
4.17684
4.75623
0.467958
0.45369
0.866675
0.598722
0.233285
0.319939
0.759977
0.538984
-0.872142
-0.783116
-0.92002
-12.8599
-12.5862
-11.8094
-12.397
-10.4457
-10.6352
12.7742
-8.23547
-8.2331
-8.28024
4.88539
18.8033
19.0143
18.957
-1.25038
-1.37489
-0.113118
0.050266
0.0236564
0.469882
-10.1249
-9.55058
1.47481
1.70256
1.11993
1.47612
1.32359
1.76317
1.81959
2.09474
18.1128
18.0811
18.5623
18.4348
-12.2352
-12.2509
-12.201
19.296
19.0522
18.6635
18.9696
4.68523
4.79071
4.44564
18.6434
1.85702
1.40958
1.43657
1.36995
-18.1217
-15.998
-19.6462
24.7436
-3.75617
24.9487
25.1383
25.203
23.1409
-14.6118
23.0771
23.7223
23.7802
23.2797
25.7725
21.0508
25.5333
25.5635
24.7447
24.786
-11.7563
22.1738
22.1245
0.424283
24.0531
-6.24948
21.7906
23.3216
23.3297
-6.82348
23.9469
0.624066
24.5478
23.6143
23.5518
21.4482
-1.20366
-0.119192
21.2833
21.1511
-16.4234
24.9304
1.20465
1.99673
-1.22542
5.77713
6.72625
-7.35528
25.4363
22.7161
25.682
25.6282
25.5798
-15.3478
-15.8789
25.2023
-15.8092
24.0017
23.8905
22.7059
24.2744
-4.3102
-16.2292
0.384699
0.507627
25.7906
-19.1368
-19.6427
21.8794
-26.5712
20.9566
20.9553
20.9409
2.62806
2.50735
25.1893
-0.689536
1.25706
1.46058
-19.1572
22.9688
22.981
25.3762
4.35582
23.9476
22.29
25.4552
21.7923
22.9152
2.52788
23.8666
19.1547
19.1891
0.538512
6.64069
22.7312
17.5583
23.0615
24.9879
2.08862
20.3805
25.2032
23.1342
23.1814
25.0627
24.2965
24.2339
23.6089
23.9971
23.9175
21.4413
21.3162
23.1693
20.2148
23.8351
20.0197
0.716918
24.2728
11.1894
20.8985
-1.17755
24.0858
23.4866
23.6457
23.707
6.18103
21.2284
21.1123
-27.0315
25.5626
25.5776
23.9083
-0.467006
-0.477622
-21.7581
23.7544
-28.2453
-27.3088
24.2774
17.7477
17.9605
-1.32324
18.8453
0.08092
0.0234352
18.1207
22.5817
23.1501
-0.661837
-1.10066
23.2531
22.2552
3.77699
21.0306
24.8624
22.3192
19.606
22.5985
21.3746
-10.2775
-10.4845
-10.1267
25.2541
23.3234
-12.3944
-12.4705
4.01951
3.86799
-14.4613
-11.8889
-11.4175
0.655907
24.6707
24.3274
-6.3907
1.28205
23.0813
22.9628
23.2474
25.0353
24.9593
22.8833
22.7244
23.9125
25.0665
22.6856
22.5137
24.3401
24.2644
23.6142
23.6064
4.74461
22.3762
22.14
23.3034
24.8115
24.3904
21.7291
25.4555
19.4392
19.621
23.282
23.2077
23.4496
24.3648
21.5707
21.4388
1.52953
22.0207
-0.31447
-0.442857
-0.435336
-13.3964
-2.61271
24.0601
-17.8374
23.5658
2.09735
19.7806
25.3279
22.6746
22.5149
22.584
24.6706
23.8047
0.94957
10.5936
9.7792
22.1645
22.3173
-1.13091
0.817577
-3.51975
-3.28288
23.5168
22.3007
0.232588
19.3006
19.6841
24.6556
23.172
-22.3323
7.8217
7.19421
22.7616
-4.90322
22.5689
22.3439
22.3831
25.3665
-6.65402
-7.69285
-7.50666
14.8389
23.2687
-0.66503
-0.955673
3.75281
0.297122
-20.81
19.6753
20.1313
0.784733
0.66805
0.505974
20.6552
1.66343
25.5408
25.4853
24.8089
22.8895
-23.5309
22.7666
22.7993
22.8664
22.9398
22.5476
24.1324
24.205
-2.12383
-6.50831
21.5689
8.58453
3.1295
3.14848
19.8293
-0.787468
-0.937528
-3.28518
-3.7053
25.2129
-26.2493
-1.05222
-1.51696
23.1167
23.2454
20.813
20.7293
0.0403482
-0.172497
-0.406333
-0.704319
22.629
-8.03569
-7.76546
1.18605
23.0453
22.9987
7.6987
23.6414
23.2051
22.4529
24.3309
20.3245
23.3669
-2.0728
22.0488
21.8317
-18.4833
4.67432
20.351
-18.6049
7.74089
8.37292
7.63238
-18.4601
1.88498
4.75117
-4.91357
20.2427
25.1587
23.088
23.3676
23.2348
-2.2016
23.0797
23.113
20.6418
-5.1546
-7.37159
-6.00251
20.679
19.6623
19.539
-0.522667
-0.251706
-13.9704
21.5727
21.4973
21.8787
21.2967
-0.87
-1.29562
3.38685
3.07057
-1.39418
-1.17268
0.643133
25.0007
25.0605
1.99076
24.2446
-6.6381
-1.63441
-1.49088
-1.20317
-11.2505
-10.8515
-11.0339
0.102522
-4.16766
-4.74336
1.71147
0.882627
1.01312
0.156988
2.39942
-4.08544
-4.01596
24.2797
24.2498
0.390455
21.4986
-10.5628
-10.8489
-9.41258
-2.4368
22.5451
18.5627
22.3357
9.74949
24.8147
20.5719
20.5561
0.803033
0.816466
0.977007
21.1656
21.1164
24.6792
0.233845
22.0857
9.80295
20.4969
20.4656
19.9795
0.543585
-1.67257
-9.00021
-9.23824
-4.60107
-5.137
24.1561
24.0907
1.33928
21.8013
23.4112
24.5636
-0.457213
-0.89338
0.690328
-5.29346
0.598276
1.53615
1.39813
24.3198
20.7892
2.44219
2.34254
1.77869
2.15977
-4.38325
-3.29971
3.08743
3.11228
7.97087
8.75509
25.4349
0.596836
0.247807
-1.80645
0.153771
0.218169
0.220123
-0.817416
-0.376981
0.631265
0.544692
0.312659
-0.847314
20.5187
20.4057
19.6972
-7.1193
-6.83068
-7.59339
-0.913448
-1.09296
-6.34043
-9.63129
-9.90464
-1.92162
-1.48577
-4.2778
-4.44002
19.5479
19.5601
24.9474
24.2205
4.04809
-6.32677
-6.50636
-6.47931
-0.765014
24.1217
24.0215
-2.98859
-2.48412
22.1946
24.2357
22.7483
22.6566
24.9732
18.82
19.0176
18.8441
0.819294
0.710214
22.0088
24.6582
24.6143
24.8793
24.8516
7.37184
8.62496
-8.23789
-7.28459
-10.843
1.74127
-8.84942
-8.36775
-4.71057
-4.93546
-5.24526
-5.73878
-5.799
-7.88481
-8.32725
21.8635
21.7761
0.521649
0.607757
-0.838469
-6.15537
20.4162
24.5791
20.4577
24.5813
22.5516
22.6946
22.6237
25.0368
-6.27332
-2.92062
-3.23749
-3.48204
-3.46471
-3.17334
-3.01686
-13.0933
-13.4936
20.0556
7.00216
22.3799
22.0188
7.43226
21.1131
-12.3719
-0.0940766
23.9325
23.7313
-0.600609
-0.640519
20.3385
-7.00048
-6.92037
25.0055
-10.4777
-9.75418
-5.13279
18.5823
18.579
-2.44978
22.5509
24.6473
18.6482
18.6693
19.9513
19.856
19.613
0.424684
0.514843
0.390167
-6.92185
-1.06529
-0.807165
1.3315
0.911023
2.55459
2.08252
2.21197
19.6763
19.4745
19.512
-4.16693
-1.10816
24.3241
0.862709
0.868052
0.905281
1.63226
-11.2817
18.4742
19.1134
18.7755
19.444
-4.17513
18.0444
17.9433
21.2973
20.9035
18.5921
4.99544
15.4975
14.9949
14.5135
23.3788
23.2724
-3.78943
-4.05894
-1.58639
-1.51382
2.59055
-5.7358
2.0501
23.1373
25.2169
25.1589
1.81668
22.5298
-0.488163
-15.2218
19.0245
18.8214
18.7698
19.878
20.0362
5.0689
-6.19101
-6.04613
-6.07149
-0.227176
23.1506
24.4672
24.0722
-0.324415
0.680249
3.13668
3.38203
18.1503
-0.790956
-1.34191
24.0196
24.0206
22.3772
22.474
22.2435
-0.534128
23.8856
23.8696
0.853372
0.105845
17.7807
22.2788
22.2269
20.2902
0.915988
2.18102
1.80346
19.8552
2.63521
18.3884
23.2156
19.0948
19.286
22.2787
-0.601095
23.0136
-3.53725
25.0955
20.1822
20.2364
25.3389
25.3749
25.3865
25.0342
22.9034
1.66041
22.8081
22.9449
-9.8149
19.5721
1.85223
1.00133
1.09437
0.99859
1.14095
-1.76973
1.86577
1.76483
-0.799255
-1.19458
-1.45359
20.3019
20.2391
-2.41893
-2.66163
-6.51428
-6.72091
-6.79515
-2.04572
-1.92425
1.5112
1.56848
-4.71698
9.50622
10.4403
17.6248
17.458
1.8879
2.09509
-5.94734
0.76425
0.210679
0.767801
0.74342
21.9941
5.27353
17.722
17.2641
-4.01079
20.1155
-17.9599
24.9531
0.307181
-0.486989
2.02925
2.24398
-5.27266
-5.33399
-5.0662
24.19
15.0973
15.8326
16.4113
1.56337
1.33521
1.18062
23.0136
18.9595
18.6192
18.5251
18.4785
3.05277
2.26096
2.25055
-8.00448
19.3841
19.3477
19.4517
18.153
18.0904
25.3436
1.17868
1.45931
1.2033
-8.21388
-8.08376
-9.57552
-8.8543
2.71621
2.89198
18.4855
18.2598
2.90222
2.97573
19.1973
18.9834
19.038
-3.47931
-3.11112
0.521792
0.415021
19.281
19.3945
0.384036
-9.59921
-10.0454
1.77402
1.5616
1.92416
-8.56645
-8.90695
0.713215
0.663282
18.7539
19.0046
18.7227
-8.12141
-8.12703
0.126923
0.358821
0.016834
-4.26217
-3.9337
-11.3283
-11.5723
22.6618
1.62429
1.49302
-13.1811
4.72304
5.05942
20.8947
20.8469
20.3878
19.0634
19.1988
23.0351
1.466
0.493958
0.229456
0.824469
0.987871
21.7815
3.19425
-0.191976
-18.351
11.6399
12.1352
-7.86904
-7.68477
24.6411
-2.01685
5.60135
5.55481
3.83276
-10.434
17.2799
16.8176
-9.71654
20.2308
19.8837
21.8905
18.537
18.7946
-2.19754
-5.91176
-5.99063
3.16313
17.9423
18.0038
18.0532
19.3815
19.8939
20.0452
21.6029
21.7031
-4.15242
21.9673
21.86
17.836
18.4571
18.4551
24.8168
24.8736
1.591
1.53926
1.43379
0.944521
0.349131
21.0981
21.5652
21.2577
25.3301
-12.0574
2.00934
2.019
2.49281
2.60796
21.1996
3.73719
3.14301
3.29276
-5.94348
-3.46531
-2.33591
-6.20623
-6.31971
-0.0224595
0.0834268
-4.73101
-4.1257
-10.8148
-10.4765
-10.753
1.20049
17.2581
17.6558
-0.371149
-0.552836
-0.0651819
19.057
18.8533
18.7432
-1.33436
-1.23129
-1.47521
-10.6756
-23.6603
4.89363
5.04598
-10.9398
-10.6432
0.903491
1.26636
18.6563
-10.2014
-10.1638
2.56427
2.4403
-0.128405
-0.0848166
6.13254
6.71541
7.6895
19.9089
19.8752
-14.7698
18.6544
18.79
1.62684
0.67527
1.075
1.22359
0.627077
-4.73285
-2.85871
-3.74721
7.31247
8.10178
9.48491
8.9737
19.9277
20.1849
-1.36823
-1.48498
0.985171
1.1936
23.0094
25.2827
18.6327
18.5606
20.9513
-5.32664
-5.00856
-4.94558
-0.854977
24.5226
16.8483
16.9889
3.20896
3.03713
20.9816
20.9867
-10.2903
-10.3476
1.36092
0.722664
0.460583
20.1615
20.2961
4.10946
4.51121
19.4385
19.5423
22.6346
22.4771
-22.2431
0.222761
2.24074
2.14406
-3.16891
-5.21404
23.5474
-16.4184
-3.91591
-10.0507
-10.365
-3.64764
-2.92508
-5.54982
-5.51449
-0.624305
-0.550489
-0.999045
2.58559
2.81332
0.131156
0.638725
0.420104
24.0455
23.2637
25.4033
22.0428
22.1307
21.606
22.0669
1.36154
1.86855
1.41638
-5.07705
-5.0558
2.68701
0.526507
0.386531
0.442701
-4.25704
-4.18345
13.9266
21.7492
8.13192
18.137
17.8198
-13.2701
7.97781
-1.24964
8.93428
-25.5882
11.8933
-12.1839
-14.2463
-11.9211
4.88612
5.36797
8.2338
6.23436
-11.9567
-9.01306
-8.65009
7.78985
8.81826
9.03783
12.1395
13.9975
-5.82626
-8.2605
7.04548
4.44684
8.84974
3.10454
-12.0504
-12.1545
10.9732
12.0101
3.53029
-18.5818
-22.7158
-9.89419
12.4246
-8.10459
3.18202
11.0838
11.1728
6.22022
6.27073
-7.61796
-8.09593
-9.12947
-12.5974
-12.4898
1.04877
-1.43412
12.5422
12.7739
3.16182
2.63822
14.0959
-10.84
13.1113
11.2667
1.03184
-2.87498
12.3346
6.10619
10.8864
2.21468
14.2408
19.5635
5.69391
9.69351
7.39849
2.7756
9.73063
4.0642
4.3926
7.29509
7.1821
-14.5249
-14.7843
1.6757
-5.06031
-20.593
5.91499
-5.7422
-8.23825
14.4526
-0.109278
12.3042
-0.607919
-1.60166
-12.5413
-15.053
-9.33924
-10.608
0.32879
-12.0535
-11.9541
5.24607
-1.99711
-2.99601
-1.74466
-0.258151
0.944444
16.3657
-9.54028
-2.95698
-2.04897
-18.0436
22.5782
-4.78509
-30.3271
-23.5038
-26.5669
3.1402
-13.9428
-15.4471
11.7719
10.7661
-9.06068
10.4994
-8.57369
-10.226
0.376129
0.319888
0.287467
0.0758852
-11.4966
1.1307
3.74792
-4.74113
10.9777
-0.564034
-1.66672
-15.466
16.3035
7.31948
10.6723
7.22201
7.04281
-22.0548
-12.3199
10.1879
-18.9289
-6.14261
13.9384
14.2172
11.8362
12.8201
-15.3441
4.27054
2.00921
1.0989
10.4575
10.208
8.97555
8.41642
9.11386
4.71579
11.7432
6.40755
-5.11906
-1.81406
-0.463183
-1.72144
-21.0161
15.9542
-4.1943
4.41698
4.67605
-11.738
-13.0168
23.1735
-18.7026
-20.1644
17.3529
12.7006
-5.6901
2.35801
-5.56527
-6.05426
4.70871
12.2814
0.65887
-13.0453
1.90332
0.868116
2.27896
3.03494
16.214
16.1664
-15.9815
0.782145
-6.00292
-5.819
2.16201
-7.33079
-11.2205
11.8789
-0.199112
0.668907
14.0045
13.937
7.53365
8.00661
2.46543
2.89669
-0.648104
-1.17434
-1.60617
16.1482
-4.93469
16.8696
16.606
17.0245
-9.27228
-9.77102
-10.9279
6.36925
-7.49077
13.757
-7.23566
-6.21878
-7.5637
4.95022
-27.1619
-7.95398
10.0738
11.1252
10.7653
13.8015
13.0833
12.5503
10.0612
10.0341
-12.8794
6.79438
12.0894
11.4755
-7.28136
-27.9797
10.8209
-25.9933
-20.8866
3.26791
4.03957
5.08948
5.60082
-18.4652
2.09238
3.15114
3.91967
12.4384
11.5848
1.23094
-2.17277
-2.78939
-0.924383
-0.317485
-17.0046
-15.8032
2.13317
1.1571
12.8755
11.618
11.2548
4.66531
5.3796
9.59453
8.47444
6.68214
9.26725
8.87223
8.06221
8.279
8.50809
10.5176
2.93205
2.70411
2.64356
-4.7035
14.4568
7.9251
8.42415
12.3034
-5.96234
16.2712
0.0417225
0.210727
-13.1161
-2.85361
-2.14081
-2.90036
-11.4943
-11.2723
-0.0815589
3.53475
2.79478
-3.07873
-1.97476
17.2512
9.21053
2.56737
3.43988
-4.48599
-14.1593
8.05873
14.7402
14.8411
9.51331
9.20173
-0.524167
-1.13116
-1.74893
-1.06827
-0.474287
5.07888
13.437
12.5743
4.53387
16.6631
17.0376
17.0289
13.4482
13.6574
5.87641
12.9553
4.59088
5.08828
-3.30039
-2.26957
11.7638
10.7971
2.44316
3.20595
9.75205
10.5002
-7.56386
1.31488
1.44325
1.3966
5.61273
-13.045