/*--------------------------------*- C++ -*----------------------------------*\
  =========                 |
  \\      /  F ield         | OpenFOAM: The Open Source CFD Toolbox
   \\    /   O peration     | Website:  https://openfoam.org
    \\  /    A nd           | Version:  6
     \\/     M anipulation  |
\*---------------------------------------------------------------------------*/
FoamFile
{
    version     2.0;
    format      ascii;
    class       surfaceScalarField;
    location    "1808";
    object      phi;
}
// * * * * * * * * * * * * * * * * * * * * * * * * * * * * * * * * * * * * * //

dimensions      [0 3 -1 0 0 0 0];

internalField   nonuniform List<scalar> 
44611
(
1.52084
-2.14263
0.621785
1.52084
1.44609
-1.44609
1.93943
-0.493344
-1.31919
-0.70774
2.02693
-1.31919
-0.0920747
-2.17063
2.08635
-0.565505
1.29387
-1.29387
0.180629
1.85448
-2.17628
0.730192
2.37679
-0.340671
0.413102
-1.73229
-0.795598
-1.19868
0.795598
1.29075
-0.552132
-1.33585
0.552132
0.74174
-0.594112
-0.824373
0.824373
-1.17128
1.35191
-0.0104591
1.28966
-1.2792
-0.136966
-1.86037
1.99734
1.52229
-0.214931
-1.30736
1.2198
-1.2198
-1.09959
1.09959
-1.51175
1.51175
-1.19453
1.19453
1.50244
0.0198585
-1.92081
0.409056
-0.920298
-0.786284
1.70658
-1.62804
-1.26553
1.26553
0.124949
-1.42459
1.29964
-1.49374
1.49374
-1.27963
-0.219508
1.49914
-1.36982
1.36982
1.65518
-0.143428
-0.460646
1.51074
-1.05009
1.72125
-0.50145
1.32614
-0.214183
-1.11196
-0.700251
1.09735
-0.3971
1.18625
-1.46018
0.273929
-0.881157
0.881157
-1.14577
1.03965
0.106124
0.952249
-0.952249
1.19038
-1.32735
-2.2796
0.81149
-0.81149
1.01423
-1.22917
1.82573
-2.04066
-1.60603
-0.621569
-0.818607
-0.787428
-0.899109
0.899109
-1.04033
1.02987
1.92898
0.093378
-1.4632
0.104288
-0.299207
1.21494
1.16186
1.73229
0.165939
0.531853
-1.21568
2.03429
-1.4632
-0.982757
-0.477427
1.29958
-1.29958
0.904424
-0.42014
-0.484285
1.33062
-1.14555
-0.185064
-0.802494
-0.652026
1.45452
0.00103281
-0.0797576
0.0787247
1.67779
-0.388131
-1.69494
-0.165433
-0.355965
0.907108
-0.551143
-0.0383478
0.0450478
-0.00670004
-0.136621
-0.610519
0.747139
-1.16013
0.459879
0.0116183
0.059859
-0.0714773
-0.0325783
0.00739897
0.0251794
0.856301
0.213057
-1.06936
-0.00200132
0.00200132
1.47499
0.524535
0.240546
1.23445
0.798732
0.879056
-0.0230055
-0.00957284
1.23256
-0.504458
-0.728104
0.917957
0.314605
-1.07042
-0.624519
-0.264154
-0.806265
-0.980484
-0.476447
-0.908695
1.38514
0.00411845
-0.0424662
-0.00869227
0.0341433
-0.025451
-0.728094
0.853043
-0.649615
-0.285019
0.934634
-1.17276
0.95325
0.000407031
-0.000407028
0.0910668
0.816042
0.995491
0.650609
0.863134
0.467486
1.15932
-0.296186
-0.0776711
0.636859
-0.559188
-0.36439
-0.479176
0.843566
0.410242
-0.744462
0.334221
1.14032
0.859682
-0.747509
0.75611
-0.00860124
-0.792334
1.06626
-0.889753
0.199057
0.690695
-0.888435
-1.11644
-0.843405
-1.43619
1.10756
0.336599
-1.44416
0.927786
-0.0714853
-0.199692
0.746792
-0.5471
-0.95583
-1.08483
-1.43228
-0.84953
-1.12114
-1.60993
0.760399
-0.867985
1.27704
-0.345772
0.806376
-0.460604
-0.980373
0.174108
-0.419143
-0.536633
0.955776
-1.30933
0.890192
-0.264941
0.8297
-0.564759
-0.83241
-0.0762854
0.753415
-0.617502
0.830559
-0.893236
0.594029
0.0492979
-0.0376796
0.0362761
-0.0449683
0.595723
-0.809906
0.848436
-0.682497
-1.4924
0.681478
-0.792505
0.111026
0.810924
-0.706636
0.901023
-0.0907534
-0.810269
-1.40009
0.000962078
-0.000962078
0.000962078
1.06826
-1.06826
1.07179
-1.07179
-1.1544
1.36181
-0.207411
0.625445
-1.07765
0.452203
-0.295056
1.36684
-0.899348
0.581597
0.317751
-0.929537
0.0301888
0.831772
-0.62368
-0.208092
0.0292778
0.337267
-1.1296
-1.2536
1.2536
-0.440263
1.35822
-0.106495
-0.464166
0.00670457
0.457462
-0.153347
-0.310819
-0.642453
0.489106
0.371811
1.02242
1.4024
0.61612
-0.0200608
0.973311
-0.0779874
0.93103
-1.24858
0.35977
-0.838946
-0.282683
-0.934353
0.333917
0.600436
-1.11968
0.18533
0.0899622
-0.79979
-0.963906
-0.315293
-1.45725
-0.727058
-0.232635
1.72638
1.067
-1.20212
1.30825
-0.0630419
-0.68142
-1.0517
1.69508
-0.643383
0.0851514
-1.41023
1.35395
1.97574
-0.860172
0.860172
-1.64277
0.782596
-0.00563293
-0.0024959
0.00812883
-0.0255955
0.0302325
-0.00463696
-0.00665409
0.00409884
0.00255524
0.0474333
-0.0572942
0.00986094
-0.0039374
-0.00422127
0.00815867
0.00414699
-0.00808438
-0.0555201
0.00944882
0.0460713
-0.594139
0.29491
0.299229
-0.0637023
0.0492227
0.0144796
0.0149824
-0.064342
0.0493595
-0.00417522
0.00832221
-0.00497719
-0.00055906
0.00553625
0.0181884
-0.000696374
-0.0174921
-0.00177672
-0.00900579
0.0107825
0.00605415
0.00471636
-0.0107705
-0.00212318
-0.00547998
0.00760316
0.00507521
-0.00445437
-0.000620835
0.00795913
-0.00224452
-0.00571461
0.0134243
0.0125554
-0.0259797
0.0387282
-0.0253039
0.000972354
-0.00606917
0.00509682
0.00560797
-0.00463562
0.634867
-0.43581
0.0886167
-0.0455771
-0.0430397
-0.0187204
-0.0207623
0.0394827
0.0285615
-0.0487622
0.0202007
-0.0037541
0.00375411
-0.00652
0.00170643
0.00481356
0.033231
-0.0118672
-0.0213638
-0.0492046
0.0104569
0.0387477
-0.0858994
0.0152719
0.0706275
0.00356217
-0.00823501
0.00467284
-0.00804324
0.00547987
0.00256337
0.107387
-0.035041
-0.0723459
-0.00416019
0.06373
-0.0595698
0.0451922
-0.0434788
-0.00171347
0.00156514
-0.0200365
0.0184714
-0.0587755
0.0156542
0.0431213
-0.0385839
0.0541596
-0.0155757
0.00325941
-0.007583
0.00432359
-0.00589436
-0.00219002
-0.00593579
-0.00717781
0.0131136
-0.0101571
-0.0420499
0.0378896
0.0317104
-0.0737602
-0.00374573
0.00991138
-0.00616565
0.0322298
0.00848101
-0.0407108
0.0199137
-0.0058661
-0.0140476
0.00305535
-0.00305535
0.00919253
-0.0283875
0.019195
-0.00700692
0.00435944
0.00264749
0.0619376
-0.0598014
-0.00213627
0.0306843
0.0322829
-0.0629671
0.0567471
-0.0260629
-0.00459858
-0.00240834
-0.0201478
0.0212375
-0.00108963
-0.00792177
-0.0122261
0.0037072
-0.010885
-0.00628744
0.00773505
-0.00144761
0.00446155
-0.00672091
0.00225935
-0.0242827
0.0392651
0.0207651
0.0107926
0.00739583
0.0181916
-0.0246601
0.0306885
-0.00602838
0.235834
-0.197791
-0.0380432
-0.00639499
0.00266107
0.00373392
-0.628594
0.343575
-0.0219587
0.0140369
0.0859465
0.464038
-0.549984
0.0552455
-0.0719063
0.0166608
-0.00352999
0.00619478
0.0129447
-0.0191394
0.00129153
-0.00129153
-0.0564328
0.473618
-0.417185
0.0133743
-0.00208976
-0.0112846
0.00829317
-0.00404208
-0.0042511
0.00514016
0.00281897
0.00915888
-0.0282419
0.0190831
0.0191509
-0.0219353
0.0027844
0.010866
0.00828497
-0.0263615
0.0533883
-0.0270268
0.00464342
0.00364975
-0.00245834
-0.00393665
-0.0125063
-0.0177297
0.030236
0.00211146
0.00880019
-0.0109116
-0.0035916
0.00573199
-0.00214039
-0.00683082
0.00323922
0.0060194
-0.000287405
0.000433551
0.015197
-0.0156305
-0.00926099
-0.0293969
0.0386579
-0.00979803
-0.035829
0.045627
-0.430487
0.355664
0.074823
-0.0339593
-0.00462464
0.0183051
0.0309861
-0.0492912
0.0164456
-0.00333204
-0.0215429
0.0214414
0.000101469
-0.0186864
-0.0028565
0.0273622
-0.0164962
-0.0500186
0.0297087
0.0203099
-0.00132806
0.00644268
-0.00511461
-0.0042036
0.0563308
-0.0521273
0.057734
0.0503326
0.00599818
-0.00149963
0.0243214
-0.0228218
0.0162838
-0.0158503
0.0147842
-0.00678815
0.0228376
-0.0160495
0.00530579
-0.0196218
0.014316
-0.00936549
-0.00894717
0.0183127
0.00989717
0.00654847
0.000531683
-0.0023987
-0.0273676
0.018892
0.00847566
-0.0227085
0.0253922
-0.00268376
-0.0500761
0.0442842
0.000178204
-0.0066982
-0.00377679
0.00566072
-0.00188393
-0.0269289
-0.56721
0.0591538
0.0373925
-0.0965463
-0.0134654
0.00692956
0.00653586
0.0106341
-0.00710752
-0.00352654
-0.049746
-0.0250218
0.0747677
0.319099
-0.526819
0.207721
-0.0050156
-0.00514146
-0.089294
0.223274
-0.13398
-0.918251
0.307732
-0.00557307
0.00636054
-0.000787473
-0.00780125
0.00710488
0.0340495
9.37374e-05
0.0256558
0.00839369
0.0244151
0.00736952
0.0138679
0.0126753
0.0041184
0.00974955
0.000852575
-0.0238581
-0.0166395
0.00664657
-0.0159649
0.00931836
-0.0155973
-0.00104216
-0.00895076
-0.0250012
0.000168295
0.0248329
-0.0392901
0.0138391
-0.246547
-0.18394
-0.0257082
-0.037994
0.0232092
0.0309504
0.0316849
-0.389638
0.491697
-0.102059
-0.509266
0.500665
0.00166617
-0.00166617
-0.0060255
0.00257162
0.00345387
-0.0769408
0.0271948
-0.00165385
0.0468461
-0.433222
-0.485029
0.164245
-0.597467
-0.552156
0.0671276
0.00275225
0.0294775
0.0263164
-0.0269582
0.00064182
0.0418243
-0.0472538
0.00542959
-0.00716335
-0.014772
-0.0139515
-0.00513099
-0.00964098
0.0577647
-0.142238
0.0844735
0.244883
0.220891
-0.465774
0.343794
-0.0989105
0.555111
-0.0179722
0.0218855
-0.00391324
-0.0159458
0.0228022
-0.0068564
-0.033918
0.0446877
-0.0101453
-0.0490454
0.0591907
0.0365286
-0.000252507
0.0263832
-0.0352256
0.0283692
0.00350266
-0.0216494
0.00551287
0.00304984
-0.00856271
-0.00291992
0.00728316
-0.00436325
-0.0480841
-0.00112048
-0.0152
0.0437614
0.0276822
0.0210257
-0.0487079
0.0366092
-0.0301066
-0.00650254
0.0314082
-0.0303753
0.0329338
-0.0288154
0.00804579
-0.0023326
-0.00571319
0.510722
0.124146
0.582832
-0.0721101
0.886021
-0.418535
0.0862303
-0.00764377
0.000960878
0.00668289
-0.00835247
0.00271954
-0.00972407
0.0067157
0.00300836
0.00172028
-0.0114443
0.0118881
-0.0051724
0.00487267
0.0195752
-0.0244479
0.00957516
0.00294568
-0.0125208
0.00726531
-0.00804828
0.000782974
0.00559324
-0.00730871
0.00171547
0.00341612
-0.0071929
0.0126989
-0.0314194
-0.00878724
-0.00652895
0.0153162
0.00596858
-0.0147558
0.00731196
-0.0138409
-0.0209664
0.0113935
-0.00468944
0.0310727
-0.00833417
0.0120414
-0.00698202
0.0118547
0.0238961
-0.489451
0.54603
-0.056579
-0.0221325
-0.00382833
0.0259608
0.00136731
0.0182079
0.0143796
0.0221076
-0.0766248
0.0545172
-0.033958
0.0560656
0.000517524
-0.00526034
0.00474281
0.0059049
0.000114498
0.00642242
-0.00514584
0.758712
0.00984843
-0.76856
-0.0515575
-0.512826
0.193833
0.318992
0.0361128
0.00571151
-0.00805857
-0.0354202
0.0280542
-0.0397688
0.0715662
-0.0317974
0.442692
-0.547791
0.105099
-0.0389916
-0.0299735
0.0689651
-0.073151
0.0341594
-0.357641
0.592691
-0.23505
-0.576993
0.556933
-0.0594807
0.163911
-0.10443
0.10829
0.127544
0.0032433
-0.00311302
-0.000130279
0.254857
0.114756
-0.369613
0.261562
0.0185624
-0.0169973
0.0090928
0.0247762
-0.033869
-0.0216482
-0.0122699
-0.0328029
0.0230048
-0.0165567
0.0501461
-0.0335895
-0.886122
-0.188236
1.07436
0.571517
0.373725
-0.945242
0.470332
0.287434
-0.757766
0.180658
0.289674
-0.50712
0.618146
-0.466191
0.630436
-0.306227
0.392174
-0.440565
0.362577
0.754751
0.0119627
0.0212682
-0.0211216
-0.00353851
0.0306888
-0.0222078
0.00509333
0.0311804
0.00184752
0.00878654
-0.00757852
-7.2026e-05
0.00765055
-0.005731
0.00871452
0.505933
-0.0418949
-0.0902276
0.447961
-0.357733
0.415705
0.00129584
-0.00207716
0.000781333
-4.00031e-05
0.00238929
-0.00234928
0.0589007
-0.767086
0.708185
0.00227082
-0.000206172
-0.00206465
0.162189
-0.104424
-0.0392194
1.17953
0.285658
-0.962665
0.677007
-0.0015309
-0.0022232
0.00218376
-0.00371466
-0.75375
0.339449
0.414301
0.573092
-0.859698
0.494165
0.365533
0.0879213
-0.0241913
-0.267895
0.498405
-0.23051
-1.2174
0.565378
-0.00170287
0.00170287
-0.696445
0.669516
-0.00869189
0.00409331
0.777435
-2.03103
0.749179
-0.758235
0.00905658
-0.554024
1.62228
-0.607717
0.695342
-0.0876249
0.385449
0.257346
-0.642795
0.828141
0.00241951
-0.00241951
-0.243486
0.778779
-0.535293
-0.732937
-0.466609
0.800526
-0.623642
0.0373231
-0.0712811
-0.874762
-0.342642
-1.28211
0.821501
0.534966
-0.612637
-1.0348
0.470046
0.0458447
0.462546
0.87814
-1.34069
-0.829379
1.29192
-1.3834
-0.774786
0.354646
-0.689275
-0.085511
-0.868436
0.00873794
-0.809535
1.33925
-0.814715
0.184846
0.39442
0.00149482
0.0026669
-0.00416172
-0.127929
0.363768
0.213928
-0.903203
-0.365373
0.152763
0.212611
-1.08285
0.624531
0.124648
-0.633269
0.00279154
-0.00301488
0.000223338
-0.955322
0.0327122
0.0830449
0.023475
-0.466203
0.649172
-0.182969
-0.343185
1.47697
-1.82015
-1.015
-0.106139
0.929852
0.524668
-0.0198986
-0.0919662
0.0720676
0.828466
-0.509367
0.362263
-1.69363
1.39858
0.894824
-0.403505
0.210197
0.193309
-0.989548
1.84972
-0.737602
0.536085
0.201517
-0.261727
-0.475875
-0.206952
1.24469
-1.45165
0.00234176
-0.000675588
-0.304905
0.781465
0.0451353
-1.31804
0.198353
-0.519305
-0.00138383
0.00138383
-0.0116079
-0.610215
1.54138
-0.179562
0.61184
0.0697048
0.0376821
-0.0242401
0.056523
0.241016
0.114648
-0.162489
0.01091
0.60736
-0.597512
-0.555803
-0.283143
0.901513
-0.418787
0.00244676
-2.72412e-05
0.646928
0.0328473
-0.479978
-0.589893
-0.0337489
-0.900513
0.31062
-0.534981
0.709176
-0.434094
0.548742
-0.717237
-0.266059
0.476255
-1.34628
-1.48971
0.649463
-1.04417
0.0548551
0.00189202
-0.253462
0.831849
-0.578386
0.0405344
-0.101377
0.0606958
0.0406813
-0.0582387
-0.0431385
-1.18997
1.0519
0.138075
0.227941
-1.27211
0.828377
-0.361594
0.0315674
0.229879
-0.261446
-0.0860018
0.117569
-0.00776721
0.0221468
0.0161289
0.0166605
0.00482662
-0.393562
-0.569103
-0.61921
0.0925651
-1.55576
-0.0239426
-0.0616222
0.77056
-1.53051
0.759954
-0.877673
1.64823
-0.753079
0.212665
0.16247
1.22947
1.55576
0.170614
0.0552426
-0.050574
-0.00466864
-0.00455876
1.64316
-1.02704
0.915054
-0.28199
0.00400724
-0.0959734
-0.0761867
0.080194
0.873752
0.200607
0.688687
-1.0625
0.643963
-0.373811
-0.937327
0.47835
-0.651252
0.0366632
0.815442
0.533451
-0.574926
-0.895714
0.320788
-1.08483
0.537453
-0.0478434
0.119911
0.0323505
0.14992
-0.00379955
0.00355605
0.000243497
-0.00230473
-0.144292
-0.572945
-0.390839
0.0184793
1.58823
1.08678
0.00186859
-0.00465924
0.00279065
-0.00362303
0.00549162
0.00966368
-0.00566605
-0.00399763
0.00226444
0.00739924
-0.00353792
0.00653499
-0.00299707
0.00565081
0.000305291
-0.0059561
-0.00109619
0.00950313
-0.00840693
0.00684412
-0.00656311
-0.000281004
-0.00467715
-0.00232405
0.00700121
-0.000437872
-0.00559759
0.00603547
-0.00438522
0.00207695
0.00230827
0.00175812
0.0071834
-0.00894152
-0.0013665
0.0107605
-0.00939397
-0.0103325
0.00366445
0.00666809
-0.00120363
0.0097807
-0.00857707
-0.015483
0.0153102
0.000172749
-0.00673277
0.00337591
0.00335687
0.00994627
-0.0120508
0.00210457
-0.0173687
0.0120662
0.00530245
-0.00437368
0.00401382
0.00035986
0.00788273
-0.00924923
-0.0181795
0.00102797
0.0171516
-0.0103828
-0.00779678
-0.00702424
0.00295916
0.00406508
0.000290511
-0.00731475
0.0049413
0.00416531
-0.00910662
-0.00764841
0.000622834
0.00702558
-0.00259106
-0.00505735
0.000480199
0.00538349
-0.00586369
0.00948416
-0.0101003
0.000616156
0.0086263
0.000857857
-0.00798586
-0.00357727
0.0115631
-0.00551637
0.0050785
-0.00131508
-0.00482109
0.00613617
0.0028355
0.00426731
-0.00710281
-0.00770935
0.00710385
0.0006055
-0.00283666
-0.00487269
0.00622419
-0.00881525
-0.0102778
0.00187662
0.00840115
-0.00350242
-0.00677534
0.00123718
-0.00575084
0.00451366
0.00460646
-0.000619486
-0.00398697
0.00392967
0.000676789
-0.0175016
0.0302005
-0.00247271
0.00470714
-0.00223442
-0.00558894
-0.000613487
0.00620242
5.75364e-05
-0.00564647
0.00187587
-0.00332413
0.00144826
0.0260114
-0.0406251
0.0146137
0.0265735
-0.00825448
-0.018319
0.00234616
-0.00881886
0.00647269
0.0110826
-0.000837465
-0.0102451
0.00390241
-0.00271829
-0.00118413
-0.0075183
-0.00272636
0.0102447
-0.0140438
0.00910969
0.00493415
0.0049849
-0.0105855
0.00560063
-0.00578826
0.0011398
0.00464846
0.0143453
-0.00382927
-0.010516
-0.0082983
0.0226436
0.000672599
0.00764031
-0.00831291
0.00303769
0.0077743
-0.010812
-0.00686117
-0.00214054
0.0090017
0.00576483
-0.0121964
0.00643155
0.00848816
-0.00718536
-0.0013028
0.0029582
-0.00935168
0.00639349
0.0100942
-0.0226461
0.0125519
0.00238024
-0.00668192
0.00430168
-0.00698001
-0.0008787
0.00785871
0.00997613
-0.00549212
-0.00448401
-0.00824797
-0.000458007
0.00870597
-0.00675539
-0.000850511
0.0076059
0.00685797
-0.323333
0.316475
0.190992
-0.184134
0.0103031
5.83412e-05
-0.0103615
-0.00181396
-0.0081031
0.00991706
0.00085645
-0.00422317
0.00336672
-0.00923195
0.00600162
0.00323033
0.00189692
0.00875293
-0.0106499
-0.0113968
-0.00408618
-0.00465151
-0.00674529
0.0111976
0.0153759
0.00831286
-0.00831286
-0.00464053
-0.00450461
0.00914514
-0.00950133
-0.00590346
0.0154048
0.00645785
-0.00244259
-0.00401525
0.00749169
-0.00692076
-0.000570933
0.00499579
-0.00559144
0.00793927
-0.00234784
-0.00902506
0.00108956
0.0079355
-0.00398557
-0.00503949
-0.00814239
0.00815909
-0.00815909
-0.00200829
-0.00428472
0.00629301
-0.00803759
0.0076411
0.000396491
-0.00125482
-0.00678277
-0.00395046
0.00671594
-0.00276549
-0.00593646
0.00365626
0.00228019
0.00175295
-0.0076894
-0.00473791
-0.00252242
0.00726033
-0.0107722
0.00479769
0.00597454
-0.00946213
0.00987807
-0.000415948
-0.00532175
-0.00414038
-0.000157748
0.0180355
-0.0178777
-0.0200323
0.0290703
-0.00903795
0.00472876
0.000346448
0.0079992
0.000704653
-0.00870385
0.00987425
0.00669183
-0.0165661
0.0289341
-0.0431314
0.0141973
-0.00897163
0.0105096
-0.00153793
-0.00553379
-0.0107692
0.016303
0.0085143
-0.00538535
-0.00312895
0.00161112
0.00690318
-0.00432423
-0.00429549
0.00861972
-0.00728206
0.0102403
-0.0123687
0.00550755
-0.00446897
0.010695
-0.00622599
-0.00123456
0.00341281
-0.00217825
0.00418637
-0.00615166
0.00196529
-0.00982804
0.00214953
0.00767851
0.0109384
-0.00353917
-0.00739928
0.00433352
0.00660492
-0.00554178
0.0013244
0.00421738
-0.00487966
0.0049372
-0.00904377
-0.000307917
-0.00600608
0.00325753
0.00485309
-0.00811062
0.00478941
0.00412737
-0.00891678
-0.00462239
0.00998611
-0.00536371
0.00823681
-0.00949162
-0.00885786
0.00779634
0.00106152
-0.00605809
0.00243506
0.00834451
-0.00300378
-0.00534073
0.0107918
-0.0116072
0.000815421
-0.00458764
0.00404367
0.000543971
0.00595682
0.00348319
-0.00944001
-0.00539314
0.0149032
-0.00951007
-0.0157673
0.00538459
-0.00582108
-0.00829808
-0.0074193
0.0157174
0.0135884
-0.0218865
0.0393025
0.00992016
-0.00843334
0.00614495
0.00228839
0.00669179
0.00107253
-0.00776432
0.00798399
0.00502845
-0.0130124
0.0307552
-0.0618225
0.0310673
0.0481625
-0.0174073
-0.00632565
0.00617763
0.000148018
-0.024204
-0.0253557
0.0495597
0.119124
-0.0139258
-0.105198
-0.00692274
0.00802017
-0.00109743
0.029259
-0.00386578
-0.0253932
0.0403986
-0.0111395
-0.00245662
0.00696121
-0.00450459
0.00130188
0.0103369
-0.0116388
-0.00526139
0.000564993
0.0046964
-0.000694361
0.00907785
-0.00838349
-0.00873896
0.0121311
-0.00339212
0.0164817
-0.0115471
-0.00493461
-0.000997677
-0.00468661
0.00568429
-0.00171578
-0.0038256
0.00554138
0.00554143
0.00485237
-0.0103938
0.0056987
0.000606524
-0.00630523
0.0120023
-0.00735069
-0.00465166
0.0102331
0.00176926
0.00472018
0.00508758
-0.00980776
0.00826706
-0.00332576
-0.00103387
-0.00637597
0.00740984
0.00219219
-0.00771334
0.00552116
0.0104085
-0.00814411
0.0101785
-0.00752087
-0.00265761
-0.00520077
0.000223581
0.00660417
-0.00357871
-0.00302546
-0.000128604
-0.00918248
0.00560376
-0.0033637
-0.00444944
0.00781314
0.0105748
-0.0123888
-0.00827425
0.00395003
0.00243801
-0.00752375
0.00508574
0.00600018
0.00712674
-0.0047465
-0.0109407
0.00317774
0.00776298
0.00636981
-0.00408028
-0.00228953
-0.00292675
-0.000838541
0.00376529
0.000485583
0.00459922
-0.0050848
0.00656197
-0.00607638
-0.000563645
-0.00812087
0.00868451
-0.0800969
-0.19265
0.272747
-0.0363788
0.030822
0.00555688
0.00578565
0.000471487
-0.00625714
-0.00264769
-0.00764801
0.00265971
0.0049883
-0.0068694
-0.00677007
0.0136395
-0.00510624
-0.00879723
0.0139035
-0.00475842
0.00940465
-0.00464623
-0.00404958
0.0108259
-0.0067763
0.00569118
-0.00349785
-0.00219333
0.000650115
0.00504107
-0.00225744
-0.00211624
0.0015502
0.00691371
-0.00846391
0.00207797
0.00585917
-0.00793714
0.000361083
-0.00804699
0.00768591
0.00444387
0.011943
-0.0163869
0.000254168
-0.00769103
0.00743686
-0.00662314
0.00687731
0.00417367
-0.00658496
0.00241129
-0.00577748
0.00698599
-0.00120851
-0.0011521
-0.00462538
0.00661921
0.00468984
-0.0113091
0.413956
-0.220122
-0.00561148
0.0112414
-0.00562991
-0.0118765
0.00389069
-0.00997962
0.00707743
-0.00507737
-0.00200006
0.00497464
0.00121018
-0.00618482
0.00732729
-0.00591213
-0.00141516
-0.00122319
-0.00699476
0.00821795
-0.00106247
-0.00746509
0.00852756
0.00292027
-0.00923227
0.006312
-0.00751959
-0.00719744
0.014717
0.000285818
0.00691896
-0.00720478
0.000545279
0.00623325
-0.00677853
-0.000814734
0.00879873
-0.0108837
0.00360165
-0.00310941
-0.00876707
-0.00748386
0.00667083
0.000813022
-0.00366531
-0.00381854
0.00704953
-0.00687879
-0.00017074
0.00358247
0.00346705
-0.00698333
0.00957611
-0.00259277
-0.00786818
0.000884847
-0.0053685
-0.00436352
0.00973202
0.00532621
-0.0173048
0.0119785
0.0121972
-0.00784876
-0.0043484
0.00739092
0.00480625
-0.0414237
-0.0140964
0.00568989
0.00352812
-0.00921801
-0.0107767
0.00698318
0.00379353
0.00351555
0.00342304
-0.00693859
0.0164217
-0.00763874
-0.00878293
0.0109243
-0.0150256
0.00410136
-0.00433763
-0.00438795
0.00872558
0.000575176
-0.00968346
0.00910828
-0.00404111
-0.0077567
0.0117978
0.00957794
-0.00699338
-0.00258456
0.00408693
0.00554684
-0.00963377
-0.00231993
-0.00807863
0.0103986
-0.00498965
-0.00483306
0.00982272
0.00276045
0.00512554
-0.00788599
0.00702672
-0.00770654
0.000679825
0.00128227
-0.00971936
0.00843709
-0.0264728
0.0206461
0.00582667
0.00797683
-0.0344496
0.0104083
-0.00735341
-0.0030549
-0.00766012
0.00132083
0.00633929
0.00368078
0.0045632
-0.00824398
0.000919268
0.00318424
-0.00410351
0.0580225
0.0241312
-0.0821537
-0.0278769
0.0091042
-0.00852903
0.00500367
0.00163519
-0.00663886
0.000177718
0.00603284
-0.00621056
-0.0221174
0.0150637
0.00705371
-0.0139385
-0.00817896
0.00238088
-0.00761596
0.00523508
-0.0411827
0.000471893
0.00849078
-0.00878974
0.000298961
0.005195
0.00611814
-0.0113131
0.00711138
-0.00249777
-0.00461361
0.0198901
-0.0106976
0.0110063
0.00652941
-0.0175357
0.000701084
-0.00937109
0.00867001
0.00185433
-0.0130333
0.011179
0.000166115
-0.0129663
0.0128001
0.00515118
-0.00826172
0.00311054
-0.010357
0.00347549
0.00688148
-0.00348579
-0.00541988
0.00890567
0.00306864
0.0055179
-0.00858653
0.00713536
-0.00684485
0.00449077
0.00389103
-0.0083818
-0.00951298
0.00448153
0.00503145
-0.00179482
-0.00771816
-0.00737472
0.00859373
-0.00121901
0.00855293
-0.000390542
-0.00816239
-0.00167977
-0.00202707
0.00370684
-0.00274783
0.0141311
-0.0113833
-0.000103069
0.0122723
-0.0121692
-0.000136648
-0.0104757
0.0106123
0.00772336
-0.0125923
0.00486889
-0.0113999
0.00329677
-0.0084492
-0.00295068
-0.00700657
-0.00494813
0.0119547
0.00336255
-0.00957363
0.00621109
-0.00806804
-0.00144828
0.00951632
-0.00651784
-0.00882299
0.00177124
-0.00600656
0.00423533
-0.00323324
0.00493967
-0.023413
0.0117676
0.0116453
0.00807847
-0.00129429
-0.00678419
-0.00591207
0.00681578
-0.000903716
0.0149413
-0.004017
0.00996412
0.00497715
0.0124047
0.00878059
-0.00764919
-0.0011314
0.00202519
-0.0048457
0.0365561
0.0108353
-0.0035969
-0.00723836
0.00816829
-0.00928342
0.00111513
0.00106419
0.0071041
0.00843864
-0.00897091
0.00053227
0.00429409
0.00414455
-0.00329365
-0.0167387
-0.011592
-0.0089119
-0.00782676
0.0080191
-0.00195547
-0.00606363
-0.00664579
0.00612174
0.00052405
0.00224255
0.00146468
-0.00370723
-0.0135534
0.00616752
0.00738588
-0.00610837
-0.00553843
0.0116468
-0.0233514
-0.0192181
0.0425695
-0.0103915
0.0060967
0.00429483
-0.0056541
-0.00473744
0.0110505
-0.00822663
-0.00282384
0.00302125
0.00776433
-0.0107856
-0.00869899
0.0076028
0.00213659
-0.00895528
0.00681869
-0.00682048
0.0052964
0.00152408
-0.00184577
0.00344588
-0.00160011
-0.00459798
0.0161885
-0.0115905
-0.024683
0.020085
0.138663
-0.240721
-0.18467
0.0653074
-0.0198296
-0.0454779
-0.0108163
0.00477315
0.00604312
-0.0118438
0.00102755
-0.00428435
-0.00572483
0.0100092
0.00558812
-0.00987246
-0.0123747
0.0216526
-0.00927788
0.0178577
0.0273414
-0.00568875
-0.0112137
-0.0416122
0.0528259
0.0312514
-0.0424651
-0.00128061
0.00770303
-0.00441688
0.0250982
-0.0206814
0.0125132
-0.0300792
0.017566
0.00134813
-0.00859199
0.00724386
0.0183206
-0.00519399
-0.0131266
0.0152155
0.00310509
0.00540529
0.00509748
-0.0105028
-0.00540671
-0.0100866
0.0190177
-0.00893102
0.00356325
-0.00527903
-0.00308254
-0.0388702
-0.0352232
0.0740933
0.0433729
-0.0657848
0.0224119
0.00480921
0.00614349
-0.0109527
-0.00276805
0.00757726
2.7115e-05
0.00611637
0.00300732
0.00515363
-0.00816095
-0.00294211
0.00853256
-0.00559044
0.00608097
0.00193813
-0.00398798
0.00967788
-0.00252796
-0.00225024
0.0047782
-0.0105529
0.0143064
-0.00375352
-0.00628666
0.0150637
-0.00877705
0.0102494
-0.0014965
0.00667216
0.0111721
-0.00143735
-0.00973471
0.00389102
0.00418234
-0.00807336
-0.0116912
0.00658491
-0.00438061
-0.00683821
0.0112188
0.00920186
-0.00466654
-0.00453532
0.00185118
-0.00656429
-0.00423039
0.0107947
-0.0058632
0.00425926
-0.00848965
0.00317836
-0.00922578
0.00604742
-0.00634288
0.00952124
0.00585787
-0.00434973
-0.00150814
-0.00779416
0.0039411
0.00385306
0.00871577
0.00128551
-0.0100013
0.00299155
0.00407743
-0.00706898
0.0047445
0.00568855
0.00855056
-0.0103273
-0.00825153
0.00317914
0.00507239
0.0175438
0.0230599
-0.0406037
0.0371577
-0.0194749
-0.0176827
0.00065044
0.00659909
-0.00724953
-0.00559565
0.00624609
0.00179464
0.00480445
0.0097892
-0.00463802
0.00354418
0.00555163
-0.00909582
-0.000173449
-0.00470621
0.00571523
-0.00154156
-0.00624777
-0.0115924
0.00936365
0.00222879
-0.011247
0.0105526
0.007085
-0.00304088
-0.00404413
0.00184798
0.0117404
0.0119421
0.00555795
0.00618247
0.0067981
-0.0103005
-0.0014622
-0.00898802
0.0104502
0.0133109
0.00176997
-0.0150808
0.0211159
0.00957255
0.0336292
-0.00302959
-0.00558014
0.00860973
-0.00644801
0.00341842
0.00434002
-0.00495351
-0.00884023
-0.0287771
0.0376173
0.00048546
0.00790348
-0.00838894
0.0108756
-0.00867271
-0.00220286
-0.0167781
-0.000452073
0.0172302
-0.0445652
0.0207986
0.0237666
0.0356115
-0.0261757
-0.00943581
0.00322677
0.00634711
-0.00957388
0.0131875
-0.0206068
-0.000189259
0.00627023
0.00486563
-0.00505489
0.00419793
0.0020723
0.00427342
0.00522971
-0.0053307
0.00960412
-0.00226407
0.00749378
0.00872824
-0.0226667
-0.00620853
0.00521085
-0.0060791
0.00390888
0.00217022
0.000612687
0.0222164
-0.0254021
0.00318574
-0.00675663
-0.00401559
0.00526275
0.00158137
0.00574295
0.00728007
0.0087486
-0.00661201
-0.00666831
0.00666831
-0.0383152
0.0116756
0.0266396
0.00527592
-0.00703659
0.00176067
0.00704716
-0.00164349
0.00429789
-0.0026544
-0.00192292
0.00192292
0.019091
0.0180667
-0.0083017
0.00734034
0.000961358
0.0319358
-0.000985445
0.00671907
0.00433976
-0.0110588
-0.00256781
0.00928689
0.0018169
0.00794731
-0.00976421
0.00679697
-0.00328141
0.00886009
-0.00992256
0.0380485
0.0187049
-0.0567533
-0.00554757
-0.00522438
0.010772
-0.0135092
-0.00326895
-0.000404024
-0.0131052
0.0141652
-0.0174342
-0.00634625
0.000766111
0.025635
0.00187835
-0.0275133
0.010196
0.0154389
-0.0270029
0.0288812
-0.00248567
0.00784745
-0.00536178
0.00291744
0.00538472
-0.00830216
-0.0039943
0.0039943
-0.00449366
0.0073258
-0.00283214
-0.00673818
-0.0342163
0.0170783
0.017138
-0.0119999
-0.00760465
0.00482679
-0.00482678
-0.00365572
0.00365572
-0.00303792
0.0127981
-0.00976014
-0.00113447
-0.00752446
0.00865894
-0.00864583
0.00636576
0.00228006
0.00105544
-0.00560941
0.00455397
0.00609526
-0.00143774
-0.00465752
0.0071507
-0.0108666
0.00940441
-0.00700102
0.00692814
7.28752e-05
-0.00434093
-0.00210708
0.00645792
-0.0105075
0.00299998
-0.00299999
0.00464489
0.00362217
0.00525758
-0.0120693
0.0036245
0.00844482
-0.0148877
-0.000167627
0.0150553
-0.000103792
-0.0101398
0.0102436
-0.007042
-0.00878126
0.0158233
0.00628233
-0.00409014
0.00284018
-0.00653334
0.00369316
0.0260643
-0.000491135
-0.0255732
0.0238709
0.0034705
-0.00735234
0.00829047
-0.000938126
-0.0115856
0.00471621
-0.0137901
0.00220446
0.01341
-0.00869382
-0.0100855
0.000714365
-0.00673781
-0.00334765
0.00069309
0.00597774
0.0177466
0.0101041
-0.0278507
0.00374551
0.00618338
-0.00992889
0.00736309
-0.0168843
0.00952123
0.00439054
-0.00439053
-0.00937086
0.00258404
0.00678682
0.00333517
-0.00862329
0.00528812
0.00291176
-0.00291176
0.00872049
-0.00569924
-0.0123328
0.0101553
0.00217758
0.00290784
-0.00723971
0.00433187
-0.0130866
0.0141146
0.00376151
-0.00721968
0.00345817
0.00642258
-0.00552638
0.00563046
-0.000104084
0.00585388
0.000264565
-0.00611844
-0.0209848
0.0240728
-0.00308799
0.0210264
-0.000243574
-0.0207829
0.0101832
0.00512701
0.0103493
0.0124901
-0.00390626
-0.0101376
0.00442017
-0.00832643
0.000215843
-0.0103534
-0.00399346
0.00598453
-0.00199107
0.00392758
0.00248876
-0.00641635
-0.00571621
0.0057162
0.0042203
0.00388152
-0.00810181
0.00208016
-0.00208016
0.00623092
-0.0108975
-0.00819229
0.0079657
0.000226595
-0.26534
0.0601805
0.20516
-0.166186
0.244709
-0.0785228
-0.431527
0.304889
0.00978505
-0.00110548
-0.00867957
-0.00663988
0.000829782
0.0058101
-0.00373204
-0.465518
0.321515
0.144003
-0.153078
-0.31244
-0.000980829
0.0112139
-1.77262e-05
-0.01487
0.0139571
-0.00870475
-0.00525234
0.0139394
-0.00651884
0.00606553
0.0004533
-0.00452881
-0.0070595
0.0115883
-0.00715726
0.0061234
-0.00742487
-0.000942828
0.0083677
0.0222303
0.00408609
-2.38595e-05
-0.0209609
-0.0283285
0.0345954
-0.00626685
0.01207
-0.00701684
-0.00307218
0.00307218
0.0018491
0.00630984
-0.00815895
-0.00584115
-0.0025508
0.00839196
-0.00399205
0.00375904
0.00274535
0.00436603
0.00667293
-0.0111307
0.0133558
-0.00222512
-0.000244462
0.0188219
-0.0185775
0.0213364
-0.0215808
-0.000480882
-0.00515967
0.00564056
-0.0345789
0.00834199
0.0262369
-0.029044
-0.0055349
0.0352976
-0.0269556
0.00441855
0.00259517
-0.00701372
0.00574295
0.00678154
-0.012928
-0.000199417
0.0131274
-0.0103081
-0.00261991
-0.00273401
0.055107
-0.052373
-0.0150113
-0.0233039
-0.00495293
-0.00170116
0.00123336
-0.00526749
0.00403412
-0.000367173
-0.00606524
0.00643241
-0.00650716
0.00613999
0.00298081
0.0136478
-0.0166286
-0.0142152
-0.00356119
0.0177764
-0.0112344
-0.00625166
0.00763446
-0.00138279
-0.00517914
0.00680979
-0.000955916
-0.0335055
0.000499377
0.0330061
-0.0146331
-0.0188724
0.035528
-0.0350286
0.0217727
-0.0190204
-0.00518556
-0.00121483
0.00121482
0.004456
0.00115197
-0.001305
0.005761
-0.0142908
-0.0157884
-0.0187077
0.0014927
-0.0014927
0.00343338
-0.00343338
-0.00198626
0.00198626
0.00597837
-0.00118068
0.00124045
-0.023337
0.00583549