/*--------------------------------*- C++ -*----------------------------------*\
  =========                 |
  \\      /  F ield         | OpenFOAM: The Open Source CFD Toolbox
   \\    /   O peration     | Website:  https://openfoam.org
    \\  /    A nd           | Version:  6
     \\/     M anipulation  |
\*---------------------------------------------------------------------------*/
FoamFile
{
    version     2.0;
    format      ascii;
    class       volVectorField;
    location    "1808";
    object      U;
}
// * * * * * * * * * * * * * * * * * * * * * * * * * * * * * * * * * * * * * //

dimensions      [0 1 -1 0 0 0 0];

internalField   nonuniform List<vector> 
29884
(
(7.47587 0.0588843 -1.04443e-16)
(5.32166 0.0253297 9.00672e-17)
(5.4121 -0.115443 4.77819e-17)
(7.11048 -0.075991 7.03853e-19)
(7.21649 0.103641 -2.85851e-17)
(5.7437 0.155782 6.80082e-17)
(7.88435 -0.117866 -3.467e-19)
(7.3855 -0.00158542 4.22559e-17)
(4.6913 0.121451 2.52362e-17)
(7.13536 0.0178182 7.14564e-17)
(7.44373 0.00877513 -3.16051e-17)
(7.20165 0.195515 1.59305e-17)
(8.07922 -0.132145 -2.63371e-17)
(7.15793 -0.112837 2.4379e-17)
(7.18021 0.0980717 -3.25325e-17)
(4.43044 -0.0562727 8.42994e-17)
(8.22163 0.0496475 -3.52541e-17)
(6.66387 0.195737 -5.93486e-17)
(6.51442 0.162975 0)
(4.17416 -0.00372532 -1.64888e-16)
(7.78988 0.209849 1.44776e-16)
(4.94066 -0.0377953 0)
(8.00611 -0.062441 -3.84098e-18)
(7.11443 -0.0216372 0)
(7.0708 -0.0131724 0)
(7.59563 0.0435235 -2.52512e-17)
(7.84404 -0.0110655 0)
(8.01561 -0.0449449 8.40871e-17)
(5.1614 -0.0249255 8.37965e-17)
(5.1586 0.113235 7.47516e-18)
(5.39908 -0.00800565 -1.35633e-17)
(4.81252 0.0893091 4.9001e-16)
(7.9894 0.0356773 -2.47995e-17)
(7.44252 -0.0308155 0)
(7.27743 -0.0591028 -7.59317e-17)
(7.50835 -0.10513 6.05974e-17)
(5.01239 -0.0349996 8.13125e-17)
(7.54853 0.135982 9.65827e-18)
(5.35299 0.1469 -7.68376e-17)
(7.77431 -0.150935 -3.72462e-17)
(5.02097 -0.0500808 0)
(7.05714 0.0710457 1.49881e-17)
(7.6036 0.195543 -4.69992e-17)
(7.23311 0.282839 -3.09192e-16)
(6.97374 -0.0161286 2.13254e-17)
(7.5718 -0.152884 -2.34287e-17)
(8.02124 -0.207501 0)
(7.6748 -0.114377 -6.60913e-18)
(4.80699 0.0345152 -8.86141e-18)
(8.36086 0.0913162 0)
(7.37431 0.125252 0)
(7.18442 -0.0740959 4.10165e-18)
(4.71338 -0.151921 3.66488e-17)
(8.4078 0.0278569 1.02211e-16)
(7.19759 -0.0624917 -8.12121e-17)
(7.08441 -0.137804 6.19223e-17)
(4.40943 -0.0181519 1.03024e-17)
(7.97829 -0.0546712 0)
(6.66106 0.0508428 6.39013e-17)
(6.89406 -0.142268 -1.01851e-16)
(7.76207 0.16016 -1.82449e-17)
(7.81091 -0.00972503 2.43256e-17)
(4.71671 -0.100599 0)
(8.13773 0.0522984 -3.75818e-17)
(7.12376 -0.0691068 2.8419e-17)
(7.00962 0.0799608 -6.32388e-18)
(7.45125 -0.0423133 8.93307e-18)
(7.82667 -0.11527 5.95656e-17)
(7.40488 -0.0942257 -4.00995e-17)
(7.332 0.0675903 5.42318e-17)
(7.24749 0.196406 4.10104e-17)
(7.67252 0.0660126 -1.35516e-17)
(7.51796 0.101946 0)
(5.63189 -0.138856 0)
(7.29964 -0.105087 -5.00266e-17)
(6.90854 -0.092665 -1.78037e-17)
(8.1315 0.105354 0)
(7.87612 -0.123221 0)
(8.0826 -0.116775 0)
(5.09445 0.0362635 0)
(7.66912 -0.0762427 5.12645e-17)
(5.23282 -0.0517991 0)
(7.11341 -0.140202 0)
(7.01547 0.0939083 2.69238e-17)
(6.60241 -0.056048 -1.88277e-17)
(4.53749 -0.493488 -9.08278e-18)
(7.35671 -0.000182502 0)
(7.60034 -0.031729 0)
(7.24949 -0.108849 4.49581e-18)
(3.68205 -0.833742 1.82873e-17)
(7.18605 -0.197762 0)
(7.8853 -0.245709 -1.92595e-17)
(4.558 -0.0860025 -5.18709e-17)
(3.35136 -0.705875 0)
(7.12195 0.126362 -4.25008e-17)
(1.62247 -0.360105 0)
(6.99611 0.0139669 -7.08093e-17)
(7.00704 0.0128894 9.36901e-17)
(7.47411 0.0549627 1.12577e-17)
(3.39857 -0.539934 0)
(7.01168 0.037125 4.72632e-17)
(6.94229 0.0734329 1.06476e-16)
(7.65513 0.0144343 0)
(7.74948 0.018542 -2.75955e-18)
(7.35416 -0.116685 -4.85053e-18)
(8.12021 -0.117473 0)
(3.82855 -0.629054 1.48769e-17)
(3.71066 0.0541084 -3.71506e-17)
(7.12155 0.133503 -4.83749e-17)
(6.96831 -0.325224 0)
(7.39848 -0.208794 0)
(1.48001 -0.20887 5.53427e-17)
(7.24544 -0.0796955 3.06491e-18)
(7.14356 -0.117379 0)
(7.30045 -0.119324 -2.47661e-18)
(6.97374 0.10991 -2.70537e-17)
(7.16216 0.115482 0)
(7.12245 -0.2239 0)
(6.76259 -0.0735382 0)
(6.64281 -0.309537 4.1284e-17)
(7.00361 0.00600677 0)
(6.85222 -0.298898 2.65839e-17)
(7.31855 -0.156018 4.12352e-17)
(6.78428 0.195728 0)
(7.03541 -0.0245731 1.28162e-17)
(7.04656 -0.191386 -6.1562e-17)
(7.80207 -0.2687 4.73051e-18)
(7.9527 -0.0382924 1.5519e-17)
(6.86478 -0.220916 -4.56036e-18)
(6.98723 0.137839 0)
(6.77151 0.167862 1.29145e-17)
(6.94812 0.120468 -1.45632e-17)
(6.96187 -0.103733 4.0627e-17)
(8.1301 -0.116888 0)
(6.89145 -0.0878441 0)
(7.46358 -0.0887281 0)
(7.64945 0.236366 0)
(7.34135 -0.109954 6.61752e-18)
(7.52966 -0.143863 -1.62368e-17)
(7.52964 -0.130036 3.35163e-17)
(7.38952 -0.114984 0)
(7.28048 -0.0144174 2.48232e-17)
(7.69747 0.142765 -1.8231e-17)
(7.73685 -0.228537 -9.36632e-18)
(7.97943 -0.184781 -1.02288e-17)
(8.00453 -0.210292 1.01024e-18)
(7.75373 -0.177552 1.89925e-17)
(7.48991 0.177261 5.38185e-17)
(7.81026 0.118118 -4.523e-17)
(7.74836 0.207503 4.93264e-17)
(7.63934 0.125569 0)
(4.31128 -0.108596 -2.38863e-17)
(3.94796 0.0285092 0)
(7.90242 -0.143752 -1.37994e-17)
(7.82031 -0.220599 2.34489e-17)
(7.88424 -0.163874 0)
(7.92618 -0.18548 -7.24181e-18)
(7.81389 -0.205025 0)
(7.86493 -0.120536 0)
(7.90014 -0.177183 0)
(7.85974 -0.149555 -2.36197e-17)
(7.03882 0.0284804 3.44824e-17)
(6.95598 -0.0457521 -3.49744e-17)
(7.54664 0.191588 -8.72271e-17)
(1.1165 -0.0675442 -1.14908e-16)
(1.06511 -0.00919525 1.16019e-20)
(4.91669 -0.0752087 0)
(4.72459 -0.00677375 0)
(7.00799 0.0425619 -3.95112e-17)
(7.95542 0.194548 5.30174e-17)
(7.35671 0.047722 -1.58438e-16)
(6.98062 0.104377 0)
(6.9736 0.0753075 0)
(6.87653 -0.0652194 -1.96031e-17)
(7.02479 -0.0635917 0)
(7.01885 -0.17759 7.79576e-18)
(6.82288 -0.258041 -6.89692e-17)
(5.16514 -0.0323636 7.57055e-17)
(7.07282 0.139131 -3.73021e-17)
(7.25013 -0.195161 -7.13682e-18)
(6.98976 -0.278609 -1.57129e-17)
(6.31637 -0.352762 -3.18564e-18)
(6.31352 -0.262057 3.95541e-17)
(6.43107 -0.19843 7.50372e-18)
(7.16467 -0.10562 9.33205e-18)
(7.26896 -0.130058 0)
(7.0652 -0.022706 -5.50536e-17)
(6.9855 -0.000132717 3.59701e-17)
(7.29731 -0.23722 -4.1995e-18)
(6.98158 0.11055 3.01259e-17)
(7.37248 -0.171405 0)
(6.56043 -0.068656 2.57502e-17)
(6.42613 -0.118968 -7.14153e-18)
(7.26091 0.159347 8.67523e-18)
(7.36205 0.127521 -3.41053e-18)
(7.03949 0.15506 0)
(6.8466 0.181652 0)
(7.37515 0.0544788 2.39894e-17)
(7.61658 -0.0178177 -7.02902e-18)
(7.46868 -0.129221 0)
(6.76972 0.0299959 0)
(7.59683 -0.0316811 0)
(7.53125 0.0593326 3.43587e-17)
(7.16894 -0.0111685 -3.44217e-17)
(7.3711 0.0701711 -9.7777e-17)
(6.56833 -0.286394 0)
(7.41016 -0.0733417 0)
(7.18816 -0.108805 0)
(7.32824 -0.0420514 0)
(7.84883 -0.119238 0)
(7.69563 -0.119101 0)
(7.87763 0.0654528 0)
(8.08178 -0.0804136 0)
(4.75348 -0.0767228 0)
(7.05556 -0.0964359 0)
(4.103 0.950692 -3.19921e-19)
(6.32738 2.47693 -5.21398e-19)
(3.86133 -0.0597783 1.71462e-18)
(6.68474 2.52774 0)
(2.79569 -1.55774 -1.68214e-20)
(2.71634 -1.53196 1.42067e-17)
(7.40843 -4.27747 7.68339e-18)
(6.79313 0.318037 0)
(6.75067 2.19871 0)
(4.19148 -0.879393 -2.08752e-17)
(2.65913 -1.60438 -1.53421e-20)
(3.93006 -0.794063 2.88189e-18)
(3.0554 -0.570425 0)
(2.50752 -5.35466 6.07415e-18)
(7.69173 -1.38875 0)
(5.12257 -4.32189 -1.05068e-19)
(3.83861 -0.815922 3.23398e-18)
(4.17115 -0.199593 4.91394e-21)
(6.50407 -4.2103 -2.77606e-18)
(6.58954 -4.20478 -2.48558e-18)
(4.15844 0.020807 5.86612e-19)
(4.10679 0.0436266 -7.24631e-19)
(6.72851 0.235306 -8.09707e-17)
(3.83822 -0.0999431 0)
(5.64676 -3.88889 -2.84513e-18)
(5.97479 -3.8083 0)
(1.64304 -0.895007 0)
(4.04348 0.69354 -1.4851e-18)
(6.10163 -4.23737 4.68246e-18)
(6.46826 -3.49762 -2.21296e-18)
(6.45714 1.84237 0)
(3.89424 -1.52404 2.86752e-18)
(3.85239 -0.511324 0)
(5.8375 -1.31293 3.7189e-18)
(7.08204 -2.36622 -1.5089e-17)
(6.69228 -3.68869 -4.6958e-18)
(6.43365 2.85926 1.39521e-20)
(6.39534 2.24924 1.69563e-18)
(6.37476 2.34001 -2.16024e-18)
(2.63466 -1.19859 0)
(2.68786 -1.40498 7.47393e-20)
(2.96283 -1.51311 -1.83141e-17)
(2.86477 -1.46118 -2.57575e-20)
(6.33083 -2.03677 -7.97562e-18)
(5.89121 -1.85151 6.30468e-18)
(6.77538 -1.90989 0)
(6.24814 2.44056 2.32747e-18)
(5.87197 -4.31825 -2.06938e-18)
(1.7513 0.743747 -6.05771e-17)
(6.18973 2.85182 0)
(3.69382 -1.35482 0)
(7.4538 -3.71925 1.65865e-17)
(6.55032 1.95541 2.11046e-18)
(6.59999 2.00142 4.90606e-19)
(3.68968 -1.26506 0)
(6.53947 2.46605 -5.14384e-20)
(6.51115 2.4812 7.18125e-20)
(3.00328 -1.42543 9.2428e-18)
(3.56802 -1.9936 4.51862e-19)
(3.45734 -2.1738 3.68497e-18)
(3.95139 -1.08299 4.24e-17)
(3.73776 -1.0461 0)
(3.07536 -0.709304 0)
(3.18634 -0.77854 5.06358e-19)
(5.91186 -4.07638 2.15634e-18)
(3.99782 -0.275229 0)
(4.0997 -0.701609 -7.0172e-19)
(6.87252 -0.411741 2.0689e-17)
(6.48316 2.46607 0)
(6.5807 0.198879 5.50998e-17)
(6.36896 2.13403 0)
(6.41272 2.18079 0)
(6.32134 -4.59031 0)
(0.964402 -0.477851 8.36431e-17)
(6.87526 0.311194 -7.62757e-17)
(2.90577 -0.392847 -9.7885e-18)
(4.12247 -0.407008 2.42076e-18)
(4.15831 -0.268659 -1.14695e-18)
(5.88846 -4.19274 -1.29086e-18)
(6.52347 -4.59277 -1.10811e-18)
(6.53335 -4.55379 -3.50229e-18)
(6.28531 2.34519 3.41246e-18)
(4.11479 -0.480216 -3.90198e-18)
(4.10098 -0.624406 1.46707e-18)
(6.1495 -4.10826 -2.18274e-18)
(6.79335 -3.49967 0)
(3.94165 -0.974095 0)
(3.99313 -0.917029 0)
(3.94575 -1.06101 0)
(3.10971 0.454175 -1.73342e-17)
(3.81989 -1.75162 9.06548e-18)
(4.18903 -1.33846 0)
(6.13084 0.122426 -1.66294e-17)
(6.34027 2.3305 -5.4962e-19)
(6.30945 2.26796 -1.96749e-18)
(6.35111 2.2721 -2.21493e-18)
(6.30116 2.3257 -4.33396e-18)
(2.94926 -1.66151 -2.05753e-17)
(5.68817 -4.18386 8.76622e-19)
(5.75156 -4.22385 -1.88913e-18)
(6.58241 -4.54794 5.30755e-18)
(6.65239 -3.90924 0)
(4.01131 -0.639146 2.67902e-18)
(7.53216 -3.38164 -5.06898e-18)
(7.49356 -3.55942 -1.10028e-18)
(7.30946 -3.00671 4.17198e-18)
(3.36854 0.12916 0)
(3.22939 0.366683 -1.72342e-17)
(3.21191 0.159554 0)
(6.6634 -4.6346 -1.98874e-18)
(6.5041 2.40548 7.78399e-20)
(3.05162 -1.92992 -1.37303e-17)
(2.97203 -1.73607 1.82374e-17)
(3.08523 -1.74924 2.20792e-17)
(2.90797 -1.9224 6.43715e-18)
(6.42942 2.39528 1.00592e-18)
(6.47626 2.3711 -1.37865e-18)
(6.45754 2.35074 3.03245e-19)
(6.45712 2.40631 3.57885e-19)
(4.03786 0.761748 2.87898e-18)
(4.00202 0.908677 -1.64474e-18)
(6.81323 0.283729 -2.54584e-19)
(6.74523 -0.873591 -3.2837e-17)
(2.87573 -0.727949 -1.99119e-17)
(2.85329 -0.966582 0)
(7.30995 -3.27054 -6.06633e-18)
(7.51121 -0.458766 -3.95427e-17)
(2.83815 -1.34294 5.78069e-18)
(5.82206 -0.845427 -2.05857e-18)
(7.1084 -0.240969 9.55746e-18)
(2.84395 -0.582965 0)
(2.94386 -0.569403 1.88331e-17)
(2.90954 -0.497925 6.72665e-20)
(2.88645 -0.622928 -5.4305e-18)
(3.58923 -0.0681661 3.17383e-19)
(3.58651 -0.246534 0)
(3.37842 -0.00408485 -6.77712e-18)
(6.54802 2.44021 0)
(6.53142 2.4183 0)
(6.57956 2.42395 1.20467e-19)
(3.28971 -0.438333 0)
(3.12414 -0.450985 3.26133e-17)
(3.07227 -0.102001 0)
(3.08941 -0.324528 -3.53119e-17)
(3.1489 -0.174317 0)
(3.40076 0.598115 -6.41322e-18)
(3.64159 0.288487 3.72312e-17)
(6.20057 0.172129 -5.99282e-17)
(6.75741 2.10549 -6.74761e-19)
(6.37456 2.36812 7.87476e-19)
(6.40604 2.3919 -1.61593e-18)
(6.69252 -0.613234 6.15921e-18)
(6.74344 -0.394688 0)
(1.14653 0.421161 0)
(2.67436 -0.541648 -8.23331e-18)
(7.11417 -3.37769 0)
(6.81511 -3.56323 -1.42584e-17)
(7.10453 -0.258792 -2.17945e-17)
(7.12997 -0.243816 1.6997e-17)
(7.06204 -0.294279 0)
(6.25974 2.49099 1.17946e-18)
(6.3112 2.55515 5.66985e-19)
(6.94976 -3.96126 4.96459e-19)
(6.55141 -4.61168 0)
(6.61957 -4.62426 2.75827e-18)
(6.53905 -4.6495 2.83651e-18)
(5.25174 0.242479 9.96293e-17)
(6.50673 -0.478031 -5.51047e-17)
(6.52424 -0.596251 0)
(6.59485 -0.405833 -2.41525e-17)
(6.26716 -3.98262 0)
(6.44788 -4.01501 5.70246e-18)
(6.35146 -4.08678 -1.2665e-20)
(6.32477 -3.96561 -4.87124e-18)
(4.22477 -0.346315 0)
(3.97803 -0.114825 -2.11756e-18)
(3.90142 -0.319672 -3.25317e-17)
(4.23766 -0.202203 0)
(6.55475 -4.06876 2.64804e-18)
(6.61409 -4.15825 2.63708e-19)
(6.65661 -4.01491 -1.77825e-18)
(4.0844 0.454204 2.45255e-18)
(4.02466 0.344096 0)
(6.37931 -3.59191 0)
(6.14263 -3.7458 -4.57737e-18)
(3.93684 0.429037 -5.43444e-19)
(3.64062 0.79571 -8.25344e-18)
(4.29826 -0.534198 -5.31292e-19)
(4.04843 -0.644993 1.79452e-17)
(4.19864 -0.666071 -1.14346e-17)
(4.22006 -0.432803 1.03569e-17)
(3.18286 -2.77484 -2.49538e-18)
(6.67962 0.256742 9.86382e-18)
(6.66772 0.228058 0)
(6.8813 0.142752 0)
(6.81504 0.175922 5.54202e-18)
(4.01546 1.17104 0)
(4.06674 1.03568 0)
(2.88655 -0.18134 -2.34001e-17)
(2.8763 -0.0637 1.56607e-20)
(2.80279 -0.208195 1.07716e-17)
(3.38062 -1.25058 0)
(6.74268 -1.78235 0)
(3.88543 1.6236 -9.39288e-20)
(4.01062 1.49083 -1.95093e-18)
(3.96864 0.984659 -1.57251e-18)
(5.53505 -3.94778 0)
(3.15382 -1.18625 9.098e-18)
(3.23398 -1.0518 1.79169e-17)
(3.01966 -1.14545 0)
(3.55891 -0.504645 0)
(3.80982 -0.332545 4.21128e-17)
(3.64258 -0.298123 -5.17895e-18)
(3.7876 -0.499054 -3.06554e-17)
(3.10891 -1.45405 1.79441e-17)
(3.27243 -1.3363 0)
(3.17518 -1.28726 -1.88514e-17)
(3.23817 -1.46554 0)
(7.6134 -0.404389 1.41576e-17)
(3.68692 -1.40934 0)
(3.48258 -1.27676 0)
(3.65506 -1.21203 0)
(3.49408 -1.43172 1.49922e-17)
(7.03963 -2.62843 0)
(7.2731 -2.48057 -8.39833e-18)
(3.84635 -1.1863 -8.43616e-19)
(3.92878 -1.10695 0)
(3.9172 -1.18901 7.59758e-19)
(3.86397 -1.11452 0)
(6.90617 0.0811988 3.49871e-19)
(6.87041 0.016455 0)
(6.52415 0.318884 3.24516e-17)
(6.88695 -3.89459 2.36141e-19)
(6.76816 -3.75373 4.3339e-18)
(6.92888 -3.79999 3.86299e-18)
(6.73298 -3.87025 4.75896e-18)
(6.87931 2.07604 0)
(7.2521 0.444403 -2.81674e-17)
(4.526 -1.53772 1.85728e-17)
(4.61316 -1.24311 -3.42746e-17)
(6.99374 -0.341456 1.71025e-17)
(7.0892 -0.270859 -1.15775e-18)
(7.01375 -0.314844 -1.12296e-17)
(6.86443 1.36872 2.09792e-18)
(4.05943 -0.199839 -3.32382e-17)
(2.09073 -0.193139 0)
(6.09377 -0.465766 -2.31903e-17)
(6.21098 -0.453024 5.3282e-18)
(6.43593 2.93074 -8.14835e-20)
(6.31129 -4.21137 0)
(6.35054 -4.13722 -2.20516e-20)
(6.41959 -4.16939 3.2636e-18)
(6.2741 -4.14483 2.91112e-18)
(4.29063 -1.22454 0)
(4.50878 -0.91035 -5.91526e-18)
(4.31573 -0.961543 0)
(4.51573 -1.15425 3.7682e-17)
(6.90493 0.11367 0)
(6.91441 0.077267 1.30897e-17)
(6.903 0.0951515 0)
(7.00338 0.07327 5.28141e-19)
(7.00016 0.092407 -1.59541e-17)
(7.56336 -0.18039 0)
(7.22813 -0.221977 -4.8604e-18)
(7.36422 -0.220548 4.9904e-18)
(7.40487 -0.178488 0)
(6.64163 0.185638 0)
(6.75403 0.0938343 -6.91283e-17)
(6.72131 0.164967 4.9492e-18)
(6.65645 0.13571 4.26739e-17)
(6.0739 -4.1985 -4.91764e-18)
(5.99554 -4.10892 0)
(5.96807 -4.18826 0)
(6.09814 -4.14295 0)
(6.28609 2.42669 1.19722e-18)
(6.31939 2.45077 -6.64027e-19)
(6.30617 2.38744 1.00108e-18)
(2.84997 -1.0481 0)
(2.75876 -1.15287 7.03108e-18)
(2.766 -1.07178 -7.41183e-18)
(2.85553 -1.14793 -5.68572e-18)
(6.5175 0.213265 -9.20484e-18)
(6.39881 0.244035 3.66759e-18)
(6.46589 0.187263 9.19131e-17)
(2.27807 -0.300178 -2.18119e-17)
(2.10446 -0.0164359 2.35628e-17)
(6.94263 0.148828 0)
(2.1429 -0.195692 -9.80626e-19)
(5.40362 0.117937 -1.19419e-16)
(6.99572 0.021004 4.48266e-17)
(7.01993 0.0764073 1.8854e-17)
(2.25082 -1.11828 -6.89958e-18)
(2.48973 -1.17456 1.26856e-17)
(7.01153 0.117479 5.58362e-17)
(7.01033 0.0850002 6.09862e-17)
(7.00902 0.0921876 -2.00929e-17)
(6.95843 0.204993 8.11746e-17)
(7.24914 -2.32072 1.57075e-17)
(7.00342 0.24415 0)
(6.05854 -0.0856221 1.52347e-17)
(1.54648 -0.260202 -2.72491e-20)
(2.07934 -0.317505 0)
(6.77871 0.236078 -5.62547e-17)
(3.75361 -1.21111 0)
(7.43544 0.016046 -4.68021e-17)
(6.99973 0.144425 4.20765e-17)
(6.79832 -0.0138099 0)
(7.86482 -0.41821 0)
(7.33892 0.337799 0)
(7.3243 0.411077 3.15794e-17)
(1.68518 0.498761 2.03044e-17)
(7.73021 -0.291811 7.67792e-17)
(7.66827 -0.354739 0)
(7.13877 0.176762 -5.6278e-18)
(6.85228 0.281005 0)
(7.3995 -2.52491 8.59237e-18)
(6.09577 -0.0729872 1.33844e-17)
(7.17086 -0.167576 -1.20785e-18)
(7.11151 -0.216091 3.44632e-18)
(7.15342 -0.194155 4.73016e-19)
(7.56973 -0.230823 0)
(6.65292 -0.439773 -6.10197e-18)
(6.63041 -0.5526 8.41957e-18)
(8.09452 -0.225026 3.65312e-17)
(8.14451 -0.138365 -3.71445e-17)
(8.06099 -0.132598 8.08893e-17)
(6.95786 -0.12607 2.0076e-18)
(6.86344 -0.103743 2.17067e-18)
(6.97561 0.181703 2.39779e-17)
(6.97061 0.155999 2.35173e-17)
(7.00055 0.0233965 2.51193e-17)
(7.00303 0.0371047 5.4907e-17)
(6.41948 -0.364016 0)
(3.24733 0.513747 0)
(6.79477 -0.446045 0)
(6.77223 -0.564208 0)
(7.14344 -0.167699 5.38714e-19)
(6.98386 0.258506 -2.45722e-17)
(6.31193 -0.0862944 -8.19636e-18)
(7.00355 0.172152 -4.31201e-17)
(6.99341 0.212577 0)
(6.99249 0.194041 9.33019e-19)
(2.11772 0.320767 0)
(6.93664 0.115872 -1.28095e-17)
(6.94639 0.104582 1.26523e-17)
(7.47665 -3.35291 7.53126e-18)
(7.40112 -3.02805 0)
(7.43857 -2.91301 3.0827e-18)
(7.39805 -0.375065 -6.7538e-17)
(7.16666 -0.0551511 0)
(8.27614 -0.0266299 0)
(6.61758 -0.0614396 -2.53879e-18)
(6.5736 -0.0549022 -1.86716e-17)
(6.8681 -0.0591495 2.62862e-17)
(4.64402 -0.256011 6.33887e-17)
(4.85602 -0.253815 0)
(7.50102 -0.396543 -7.80865e-17)
(7.4444 -0.368769 6.13374e-17)
(8.06805 0.035135 -3.44611e-17)
(8.16645 -0.119369 0)
(6.02183 -0.153557 0)
(7.06665 -0.00457506 0)
(7.18008 0.390178 1.07504e-17)
(7.15845 0.340191 0)
(8.0673 -0.138555 0)
(8.27248 -0.105341 -2.23738e-17)
(1.74763 0.560169 0)
(7.11375 -0.247729 -8.79361e-19)
(7.25162 0.00871474 0)
(4.61701 -0.734604 -3.05498e-17)
(7.22287 0.122954 3.61211e-19)
(7.23266 0.0809874 4.3862e-18)
(1.03508 -0.0876004 -7.95009e-17)
(3.7239 0.436306 1.52487e-17)
(3.57137 0.620178 -9.51954e-18)
(6.79817 0.213698 4.96718e-17)
(6.99741 0.0541661 -2.3453e-17)
(6.99265 0.0727494 -2.47219e-17)
(5.34952 -1.00184 -3.17687e-17)
(6.4974 2.02097 -1.9046e-18)
(6.15515 0.0132711 -3.47212e-17)
(6.02967 -0.0395914 0)
(2.71753 -1.21872 1.23799e-17)
(2.74521 -1.31653 -1.2546e-17)
(6.66078 0.0827687 -4.309e-19)
(6.55197 0.00221018 7.30852e-17)
(6.65117 0.0156093 0)
(6.9997 0.0939076 5.07669e-17)
(7.00296 0.126253 1.96949e-18)
(2.47738 0.650847 0)
(6.96578 0.249457 -5.15824e-17)
(6.60819 0.244016 -5.37972e-17)
(6.57637 0.315346 -3.20576e-17)
(6.86581 0.234888 9.60534e-17)
(6.90405 0.235674 -6.91519e-17)
(6.92092 0.199545 -2.74779e-17)
(7.30006 0.0559853 -5.39652e-17)
(6.27198 -0.0138249 2.36495e-17)
(6.38789 0.0468788 -5.8272e-17)
(6.17078 -0.17424 -1.34826e-17)
(6.28537 -0.0935178 -8.25524e-17)
(7.51941 0.0101573 0)
(7.66925 0.0761465 -3.09432e-18)
(7.1768 -0.142511 -2.12107e-17)
(7.87434 -0.0039985 5.46061e-17)
(6.59135 2.08709 1.19721e-18)
(6.98107 0.137679 3.26481e-18)
(7.04478 -0.316264 0)
(7.08364 -0.267314 6.13332e-18)
(4.33099 -0.438861 0)
(4.63742 -0.47119 7.03333e-17)
(7.46837 0.186581 -5.22637e-17)
(7.82311 0.155815 -2.64246e-17)
(7.52373 0.116971 -9.64336e-18)
(7.43791 0.139239 6.20164e-18)
(5.66485 -0.116788 0)
(5.47036 -0.151175 0)
(3.4573 -1.52955 -2.08188e-17)
(3.25747 -1.54468 0)
(3.18 -1.71665 -1.76664e-17)
(2.82224 -1.68238 -1.54857e-17)
(7.01671 0.0539601 -7.28475e-18)
(6.73295 0.203357 0)
(6.81282 0.191025 0)
(7.52197 0.0277698 0)
(7.8571 0.0346356 -6.34627e-17)
(4.06138 0.228419 -2.8266e-17)
(4.25576 0.183609 2.38809e-17)
(8.34437 0.0807973 -1.5088e-17)
(8.21273 0.143916 -1.90182e-16)
(8.07006 0.0427568 -7.15316e-17)
(7.14427 0.0789898 0)
(7.70577 0.235969 0)
(7.03298 0.0818521 0)
(7.41892 -0.049603 0)
(7.0239 0.1868 -4.68752e-16)
(4.90626 0.0320349 5.28236e-16)
(7.45795 0.176575 8.73097e-17)
(7.4158 -4.01356 0)
(7.48864 -3.85967 0)
(6.98834 0.0254225 -2.43478e-17)
(6.9522 0.0473288 -5.74129e-17)
(7.02186 0.0420764 1.8936e-17)
(6.93702 0.0613552 8.35403e-17)
(7.90117 -0.25933 6.22263e-17)
(5.01433 -0.0323057 -4.45541e-17)
(5.18018 -0.095284 -5.69967e-17)
(5.34668 -0.0054084 8.93564e-17)
(6.89443 0.123701 0)
(6.88252 0.14714 0)
(6.85323 0.182107 0)
(6.87444 0.173528 -2.83939e-17)
(6.83328 0.215098 0)
(7.00136 0.0626255 3.76358e-17)
(7.31126 -0.0713688 5.55123e-17)
(7.02352 -0.124481 -4.72629e-17)
(7.56667 -0.366259 1.05466e-16)
(7.6598 -0.300024 -7.05377e-17)
(7.63891 -0.2789 -6.50732e-17)
(7.61661 -0.262087 0)
(7.44699 -0.277386 2.4635e-17)
(7.5191 -0.3027 -2.45636e-17)
(4.76956 -0.0791119 -1.95191e-17)
(6.90674 -0.0364782 -6.97518e-18)
(7.81916 -0.230434 2.26948e-17)
(4.99778 -0.405814 0)
(5.17028 -0.349397 -2.53554e-17)
(5.37277 -0.35336 -4.37419e-17)
(3.19355 0.459282 9.11439e-18)
(3.21863 0.51804 8.02277e-18)
(6.39615 0.105935 2.86623e-17)
(6.30487 0.136053 0)
(3.45943 -0.874592 -3.15758e-18)
(3.37587 -1.04447 0)
(7.69684 -0.10009 -1.58089e-17)
(7.85128 0.0308853 0)
(7.77778 0.110396 3.02042e-18)
(3.77031 0.879996 3.93795e-18)
(3.72393 0.870433 3.75177e-20)
(5.1581 -3.19976 4.85434e-19)
(5.17312 -3.28426 -4.45158e-19)
(2.62512 -0.908725 0)
(4.04154 1.89141 -1.18765e-18)
(7.96177 0.200599 -7.05227e-20)
(5.94464 1.08198 0)
(6.54804 0.972762 8.1534e-20)
(6.23682 0.909416 -2.54187e-19)
(2.51475 0.437929 0)
(6.00491 -2.25586 -3.72504e-19)
(9.50929 1.12329 -1.04371e-18)
(8.03817 0.43829 2.96874e-19)
(9.023 -0.306021 2.36212e-18)
(6.5592 3.2937 -1.21795e-19)
(2.62644 0.461012 4.15964e-18)
(5.50511 -4.27601 9.25567e-19)
(7.00004 -4.82354 0)
(3.7441 -0.751699 0)
(9.4416 1.10714 0)
(5.4334 -4.19147 0)
(5.50984 -4.23158 0)
(6.13041 2.13543 5.08244e-20)
(6.13412 2.15433 0)
(6.49447 0.654079 1.58025e-19)
(7.13905 0.860374 2.71566e-20)
(7.13391 0.90254 -3.04515e-20)
(5.97809 1.00615 1.69849e-19)
(7.42805 -1.1596 1.40699e-19)
(7.45669 -1.24688 7.11677e-20)
(5.95486 -4.61318 9.88296e-19)
(6.2751 0.895431 -1.43927e-20)
(6.3393 0.858138 0)
(7.57846 1.04948 1.72861e-19)
(7.48277 0.789115 -8.01768e-21)
(7.48469 0.826267 -2.41194e-19)
(7.18695 0.906008 0)
(6.60761 -2.15785 0)
(6.60463 -2.10178 -8.88322e-22)
(3.52305 -2.28131 2.12891e-18)
(6.40887 1.07036 1.11026e-19)
(6.40426 1.03911 -2.95424e-20)
(5.4033 -3.93732 0)
(1.54367 -2.06203 3.4206e-17)
(3.92221 1.75216 8.22656e-19)
(3.97791 1.78346 -1.54929e-20)
(2.54024 0.0299808 4.41858e-18)
(4.03708 -1.65939 -1.93784e-17)
(6.03824 2.58505 4.94806e-19)
(8.69466 0.831419 3.96375e-19)
(6.63055 -4.77759 -2.35682e-19)
(2.34766 -0.956476 -1.58004e-18)
(6.67692 2.27519 0)
(6.77692 2.48575 -4.91625e-20)
(6.15999 -2.42918 1.60839e-19)
(3.40705 1.37357 -1.83275e-20)
(6.98321 -4.76977 -3.39434e-19)
(7.00077 -4.75759 8.62467e-19)
(6.14506 -1.55099 0)
(7.26235 -1.42807 0)
(7.07862 -1.69906 -1.47104e-19)
(6.96439 2.92397 -2.62229e-19)
(7.274 0.636667 -1.0876e-19)
(7.33991 -1.55163 9.11971e-21)
(6.34813 2.32131 0)
(4.88585 0.905423 0)
(8.44058 0.274087 0)
(6.04133 -2.3846 -1.06789e-19)
(2.87311 -3.45326 -2.52247e-20)
(2.99251 -3.23541 1.36966e-18)
(6.80209 -0.796815 0)
(6.81499 -0.899809 9.38234e-18)
(6.33207 -4.70309 -1.0434e-18)
(6.92068 2.73041 -1.30687e-19)
(3.35327 -1.88465 1.32647e-18)
(7.91225 0.739604 -5.15675e-19)
(5.94078 -4.65954 0)
(6.50021 3.338 0)
(6.43707 3.30006 7.17874e-20)
(6.08702 2.63632 0)
(5.02556 -3.24388 -4.43464e-18)
(6.59991 3.72608 0)
(6.74503 2.81402 5.37047e-20)
(6.65569 1.03306 0)
(4.19596 0.971398 5.85836e-19)
(4.17274 0.930586 2.88242e-19)
(6.1685 0.690435 4.89951e-19)
(7.82177 0.77624 0)
(7.81007 0.818889 0)
(7.89579 0.785763 5.09362e-19)
(5.62162 -2.74405 9.10982e-18)
(6.95672 1.11573 6.52211e-22)
(8.22411 -0.491608 0)
(8.19968 -0.407902 -1.04978e-19)
(2.32158 -2.00786 5.38794e-18)
(6.88416 0.877921 -1.42289e-20)
(6.90535 0.906298 0)
(2.69384 -0.130967 6.48168e-18)
(2.75567 0.0365595 0)
(8.46648 -0.199935 -8.11e-19)
(8.45607 -0.147057 -5.34142e-19)
(6.24461 3.34025 3.14331e-21)
(7.09871 -4.76994 3.7859e-18)
(3.85078 -0.886167 1.73957e-18)
(6.81636 2.3715 1.80557e-20)
(6.76143 2.6952 -2.02995e-19)
(6.38073 2.46097 1.4739e-18)
(7.82079 -0.762172 -6.75087e-21)
(2.66664 -4.46538 6.37412e-18)
(7.05464 0.91429 -1.956e-20)
(7.05444 0.878309 1.09154e-20)
(7.61448 3.1979 3.92702e-19)
(7.27498 -1.57812 0)
(7.13183 -1.64946 8.21105e-20)
(5.72851 -4.58209 1.3646e-18)
(1.62461 -1.38628 -6.76992e-18)
(4.26272 1.48296 2.20253e-18)
(8.28054 -0.8109 9.18747e-19)
(5.62754 -2.68357 -2.51505e-19)
(5.63797 -2.75475 6.16427e-19)
(4.09369 1.60002 -9.30193e-19)
(4.02205 1.73841 -1.2357e-18)
(7.36355 -1.47961 -8.08286e-21)
(7.34163 -1.43036 6.31469e-20)
(7.43885 -4.07661 0)
(7.95023 -4.96637 0)
(7.6967 -0.690453 2.67571e-19)
(8.14084 -0.40404 8.21575e-19)
(8.20461 0.949619 0)
(3.70519 0.960476 -3.70789e-18)
(7.41543 0.993484 0)
(7.79334 -3.18412 9.70824e-19)
(2.35452 -2.07482 2.057e-17)
(7.74911 -4.29435 0)
(6.49044 2.2818 -5.71766e-20)
(5.3846 -4.19547 -3.46993e-19)
(5.39488 -4.21584 1.44626e-18)
(6.26366 2.36904 0)
(6.29729 2.36175 -3.57863e-19)
(6.78857 2.2548 0)
(4.51365 -0.034949 0)
(6.43544 0.592968 -9.82776e-20)
(9.11814 -2.69994 1.53005e-18)
(5.94654 -2.38181 0)
(6.60327 -2.75701 0)
(6.61117 0.841808 -8.77706e-20)
(7.15287 -4.38311 8.35159e-20)
(6.66663 -0.894755 1.69998e-17)
(6.93604 -1.19456 2.68145e-20)
(7.50435 -4.90907 -2.52015e-18)
(7.56692 -4.89198 0)
(6.04886 1.31154 0)
(2.17891 -4.09277 1.00132e-17)
(3.35281 0.631906 -1.85566e-18)
(6.75813 3.43772 2.308e-19)
(6.34156 -2.08647 1.13848e-19)
(6.10795 3.17892 0)
(4.22242 1.34007 8.30781e-19)
(4.29506 1.25752 1.58662e-18)
(7.2469 -0.711568 -3.59153e-19)
(5.87115 1.10057 3.14496e-19)
(7.01656 -1.46972 -1.05033e-20)
(7.02248 -1.54436 1.49148e-19)
(7.74931 1.09322 -2.03215e-19)
(6.53277 0.617865 -1.70823e-19)
(6.90577 0.8138 0)
(6.99208 0.807334 7.0525e-21)
(5.08489 -3.30943 0)
(4.90915 -3.3539 0)
(3.91364 -0.724502 0)
(2.67783 0.575894 -3.40299e-18)
(2.64032 0.539637 0)
(2.64985 0.686601 0)
(7.41559 -0.201744 1.03725e-19)
(6.89514 2.69433 4.59811e-20)
(7.62 3.25191 2.24653e-19)
(4.01219 -1.54112 0)
(3.95196 -1.56237 7.51492e-19)
(4.9173 0.874695 0)
(6.64944 2.30957 9.01707e-21)
(4.26326 1.71083 0)
(2.54861 -0.906676 4.48824e-18)
(4.73098 -0.0381292 2.28127e-18)
(4.78825 -0.0515058 -9.80289e-20)
(7.90676 0.613619 -4.89839e-19)
(6.8112 0.648305 7.83984e-18)
(6.69334 2.73298 3.30965e-19)
(4.51445 0.0965658 0)
(4.53777 0.0333928 0)
(7.54407 1.46696 -3.99783e-20)
(6.59505 2.30857 0)
(6.74336 -4.7818 0)
(6.37514 -0.5009 -6.83333e-21)
(6.89882 -4.80393 -1.21268e-18)
(6.29473 0.997692 -1.18505e-19)
(6.28643 0.962047 1.79748e-19)
(3.74268 -0.670978 -1.02194e-18)
(6.6427 -1.5528 3.39182e-20)
(7.01764 -4.97276 -4.70462e-19)
(6.65975 2.22742 1.62009e-20)
(6.79489 -4.73947 6.37149e-19)
(7.10314 0.441318 -1.1655e-20)
(7.04331 0.44333 -3.24592e-21)
(4.16944 1.69173 -1.74058e-18)
(4.52302 0.825207 0)
(4.51745 0.880839 3.32485e-21)
(4.90453 -4.59421 7.24208e-19)
(6.4876 0.391935 0)
(6.47711 2.17027 1.40413e-19)
(6.00693 -4.64008 0)
(6.00111 -4.66275 1.01399e-18)
(4.35646 0.613515 -2.61568e-19)
(6.74955 0.909318 0)
(6.82268 0.923477 0)
(6.6031 2.16643 1.33769e-20)
(6.76266 2.27873 -9.86377e-22)
(6.80825 2.31612 -1.89132e-20)
(4.79416 -5.10653 -3.77358e-19)
(8.11705 0.543688 -3.8418e-19)
(8.20254 0.537884 0)
(9.05479 -2.74318 3.08624e-18)
(7.22527 -1.54817 -9.73407e-20)
(7.22206 -1.47387 -4.45987e-20)
(7.14158 -1.58885 2.22091e-19)
(5.91544 0.497313 8.45892e-20)
(5.91555 0.555331 0)
(6.20201 0.358252 0)
(6.18298 0.311795 0)
(7.43319 -0.685076 0)
(7.47027 -0.652768 0)
(8.55049 1.01405 5.93531e-19)
(5.72437 3.38648 1.48825e-19)
(6.84786 2.9307 2.54513e-19)
(6.89671 2.91044 0)
(7.42979 -4.40681 5.19947e-18)
(6.04325 -0.314182 0)
(7.73221 -4.86723 0)
(4.53833 0.486745 8.63684e-19)
(6.74026 -4.7613 -7.0702e-19)
(6.65751 -4.75423 1.48417e-18)
(7.71331 -4.63208 3.48066e-19)
(6.13515 -1.72351 4.04461e-19)
(7.08009 -4.93057 0)
(6.57045 2.19761 3.15065e-20)
(6.5273 2.16025 0)
(8.16998 -1.77766 -5.35593e-19)
(8.12719 -1.1078 -8.87919e-19)
(6.95303 0.970341 5.25174e-21)
(4.42111 -0.145497 0)
(7.22942 -4.83545 7.9189e-19)
(5.88849 2.75185 0)
(5.81829 2.73918 2.24588e-18)
(6.74936 -4.7981 -1.76688e-19)
(4.67909 0.263693 1.57397e-18)
(8.23321 1.02301 0)
(1.70394 -1.75198 0)
(6.52021 1.66447 0)
(6.44165 1.76293 0)
(6.22855 -1.72594 5.83176e-19)
(6.65191 1.08002 2.45548e-20)
(6.5818 1.07421 -9.16597e-21)
(6.61377 2.57876 8.56065e-21)
(6.57701 2.60395 -7.56583e-21)
(6.78701 0.603227 0)
(6.20926 2.42032 -2.4144e-18)
(8.91796 0.612505 0)
(8.80132 0.605529 1.55675e-18)
(6.16848 0.954663 0)
(6.18551 2.92986 0)
(6.22066 3.06631 2.4737e-20)
(6.92624 -1.03796 -8.84385e-21)
(6.67424 3.04789 -1.16433e-19)
(6.65428 3.18834 0)
(6.58628 -1.39471 -2.37611e-19)
(7.92007 -0.886149 2.41746e-19)
(8.04043 -0.780819 6.41635e-19)
(6.0561 2.18001 -1.89352e-19)
(6.10958 2.16508 0)
(7.56919 0.780406 -8.66293e-21)
(8.48664 0.833606 -3.61998e-20)
(8.49254 0.896482 3.36428e-20)
(6.44882 -1.65498 -3.48304e-19)
(6.36361 -1.75936 0)
(2.09632 -1.12475 0)
(5.6908 -4.39145 -1.16329e-18)
(5.57428 -4.35097 1.351e-18)
(6.96235 -1.79301 -3.90091e-20)
(2.88553 0.516829 0)
(6.90936 2.77352 -7.94853e-21)
(6.87451 2.78534 1.15712e-19)
(5.1963 -4.11202 0)
(4.47405 -3.53962 -3.34856e-18)
(6.55902 -1.63925 -2.65194e-20)
(6.5861 -1.56108 1.03838e-19)
(6.48101 -1.62235 3.0478e-19)
(4.16152 0.546201 2.54818e-18)
(4.09249 0.654486 1.44848e-18)
(6.82936 -4.71709 2.1293e-18)
(7.64282 0.473497 2.7084e-19)
(6.81407 0.527802 -4.8351e-21)
(6.67791 -4.74331 0)
(6.65479 -4.72968 0)
(6.72147 -4.74774 0)
(3.03585 -3.06575 1.18851e-18)
(3.07558 -3.1191 3.36233e-18)
(4.92913 -1.1934 0)
(6.55079 -1.181 -9.51379e-20)
(9.00948 -0.0194336 -2.67822e-19)
(9.03987 -0.0547414 0)
(6.07629 -1.03329 -4.35664e-19)
(6.08994 -1.10331 2.82255e-19)
(7.06651 -4.78739 -2.53964e-18)
(7.03739 -4.77072 2.33155e-18)
(7.07984 -4.81333 0)
(4.37371 1.03858 9.92975e-19)
(4.35991 1.14593 7.53554e-19)
(2.02301 -1.64392 0)
(6.86209 -4.78897 -1.49833e-18)
(6.88507 3.11948 -5.23397e-20)
(6.01705 2.29726 3.78427e-18)
(5.76561 -4.53242 1.07375e-18)
(5.76812 -4.55832 0)
(2.63631 -3.29389 -8.15737e-18)
(8.31492 -0.590913 9.26991e-19)
(8.02442 0.204076 6.74007e-19)
(8.15182 0.175518 2.02837e-19)
(6.35163 0.925511 -2.67425e-19)
(2.57929 -0.107215 -6.40136e-18)
(6.36969 3.07866 0)
(6.45676 3.07887 0)
(6.66798 -0.704726 -1.14951e-17)
(6.72285 -0.798496 0)
(7.04636 -3.59405 0)
(8.34049 -0.288272 -8.85341e-19)
(8.31539 -0.218499 1.31925e-18)
(8.06425 -1.02555 0)
(7.99609 -0.997532 -3.14526e-19)
(6.36299 2.46856 6.47985e-20)