/*--------------------------------*- C++ -*----------------------------------*\
  =========                 |
  \\      /  F ield         | OpenFOAM: The Open Source CFD Toolbox
   \\    /   O peration     | Website:  https://openfoam.org
    \\  /    A nd           | Version:  6
     \\/     M anipulation  |
\*---------------------------------------------------------------------------*/
FoamFile
{
    version     2.0;
    format      ascii;
    class       volScalarField;
    location    "1000";
    object      nuTilda;
}
// * * * * * * * * * * * * * * * * * * * * * * * * * * * * * * * * * * * * * //

dimensions      [0 2 -1 0 0 0 0];

internalField   nonuniform List<scalar> 
29874
(
0.251717
0.207353
0.121572
0.155393
0.178791
0.241635
0.217262
0.141058
0.152904
0.141856
0.268176
0.258148
0.182171
0.263009
0.266334
0.283363
0.175415
0.277306
0.118827
0.141927
0.14066
0.143784
0.140536
0.153397
0.144482
0.177057
0.219747
0.143847
0.233523
0.23379
0.229465
0.195415
0.194799
0.22068
0.151476
0.158007
0.142247
0.162895
0.164086
0.200367
0.139905
0.139656
0.145186
0.133088
0.191233
0.160681
0.178102
0.245051
0.239106
0.239899
0.193926
0.291298
0.267664
0.279119
0.199253
0.192554
0.134866
0.169836
0.166089
0.172033
0.163764
0.149104
0.147478
0.167409
0.123467
0.18982
0.238437
0.176417
0.262184
0.283436
0.154935
0.148351
0.144379
0.109379
0.285054
0.230585
0.231908
0.226245
0.18295
0.164742
0.192359
0.110994
0.138331
0.146643
0.0953424
0.109333
0.148783
0.140871
0.18797
0.163114
0.0701079
0.139499
0.138622
0.145213
0.134311
0.138247
0.135899
0.0981939
0.0611495
0.107226
0.150874
0.13857
0.138803
0.167683
0.211661
0.0632433
0.0755033
0.154634
0.158874
0.144392
0.0747437
0.195778
0.205161
0.138531
0.138531
0.138793
0.134778
0.150721
0.000268554
0.142243
0.139786
0.178281
0.129855
0.115183
0.13644
0.138619
0.153006
0.146942
0.142075
0.135024
0.14001
0.137075
0.150476
0.143214
0.143571
0.14328
0.146254
0.135202
0.143801
0.233598
0.200276
0.171768
0.278233
0.169537
0.149491
0.152048
0.170742
0.182881
0.139763
0.27661
0.246729
0.240761
0.294547
0.121996
0.135336
0.140107
0.150221
0.161893
0.183611
0.18514
0.166863
0.181099
0.222257
0.163079
0.216006
0.19013
0.171898
0.150208
0.149336
0.154368
0.194033
0.173024
0.164466
0.0922538
0.0807703
0.154995
0.148058
0.000320074
0.147805
0.145021
0.000268727
0.000246907
0.160481
0.143083
0.140973
0.158803
0.138317
0.138661
0.140696
0.138618
0.138496
0.190318
0.144905
0.139437
0.170661
0.143272
0.141866
0.154936
0.000495346
0.000488093
0.152211
0.150673
0.176745
0.163711
0.141029
0.138947
0.140614
0.216552
0.146706
0.14001
0.142439
0.145684
0.133822
0.141678
0.142985
0.146137
0.145611
0.142525
0.146287
0.15295
0.235786
0.197299
0.197858
0.162328
0.139693
0.145999
0.15142
0.149339
0.161384
0.139086
0.139977
0.140015
0.137373
0.130317
0.144502
0.146541
0.135282
0.170744
0.159411
0.196036
0.198754
0.00668091
0.0420836
0.101958
0.10757
0.0377803
0.0356864
0.0571372
0.131734
0.0491777
0.0823386
0.127022
0.0905717
0.0488547
0.103619
0.0513975
0.0565554
0.000536773
0.0473309
0.0528907
0.0464669
0.0476443
0.0569553
0.0572097
0.0604177
0.0575765
0.0595949
0.115502
0.11195
0.000339412
0.042648
0.0404233
0.108996
0.0841751
0.108485
0.0802487
0.0304083
0.000760713
0.104006
0.0831837
0.0789376
0.126636
0.126488
0.121945
0.121662
0.071402
0.12521
0.125367
0.0522274
0.0557734
0.0848049
0.0886903
0.0900539
0.056797
0.0590472
0.0592149
0.0581518
0.0394204
0.0992541
0.100937
0.110639
0.040418
0.117345
0.0369478
0.0917642
0.0895089
0.0455005
0.12769
0.0347502
0.00386756
0.0554595
0.0561404
0.0343897
0.0372692
0.0311415
0.0532967
0.0548717
0.0837628
0.114189
0.112015
0.0602608
0.0626406
0.0405433
0.0458123
0.110542
0.108486
0.11121
0.13826
0.058061
0.0589151
0.136038
0.136485
0.0453224
0.0432575
0.0586351
0.0490769
0.111349
0.112796
0.112961
0.111324
0.0411544
0.0271392
0.0441637
0.0479964
0.0461855
0.0459034
0.11632
0.116411
0.0601607
0.090839
0.128267
0.124306
0.0656534
0.0592928
0.0745743
0.105598
0.0528954
0.053276
0.108278
0.000330086
0.0590978
0.0277941
0.0594812
0.0452662
0.0440937
0.088638
0.0895215
0.0872148
0.132278
0.0605266
0.0560993
0.0596503
0.0563529
0.139534
0.131252
0.0627659
0.0705208
0.0687149
0.0629316
0.0726551
0.0395431
0.0395658
0.120525
0.131276
0.110535
0.110455
0.12874
0.113565
0.115136
0.112317
0.0623276
0.0611194
0.0383168
0.0593495
0.0607537
0.0576131
0.0566586
0.0583782
0.0556182
0.138066
0.0591074
0.0602305
0.0606213
0.126768
0.122656
0.130434
0.047688
0.0505886
0.0476518
0.0501714
0.0896497
0.0821215
0.0853715
0.087043
0.136808
0.0252676
0.0320397
0.0413972
0.0375985
0.0456644
0.0453028
0.0427684
0.0816324
0.0698101
0.0863949
0.0828269
0.081037
0.0886164
0.0778988
0.0781383
0.0545831
0.0544856
0.056821
0.0525504
0.0417037
0.0560738
0.051179
0.03998
0.044658
0.0690486
0.0768297
0.0709512
0.0738165
0.0521558
0.0487445
0.139384
0.140165
0.138079
0.136777
0.140554
0.0518811
0.0551253
0.0491191
0.0794671
0.0900252
0.0844378
0.0529269
0.0542411
0.055643
0.0520302
0.0620345
0.0611905
0.0617599
0.0610621
0.054975
0.0550829
0.0521384
0.0776919
0.150965
0.144031
0.147589
0.148125
0.0659706
0.113572
0.105006
0.103974
0.107336
0.04854
0.0447343
0.0522255
0.0865734
0.0610695
0.0673076
0.0646223
0.0633933
0.138185
0.0433519
0.040786
0.04056
0.043243
0.165885
0.000256363
0.137228
0.193883
0.000489806
0.138567
0.168014
0.139511
0.139504
0.139539
0.170138
0.127513
0.138037
0.138792
0.113075
0.134685
0.132932
0.138442
0.136613
0.130711
0.138492
0.138133
0.116322
0.138689
0.138448
0.00346813
0.139149
0.14222
0.000226717
0.138389
0.138798
0.140433
0.115223
0.140015
0.129641
0.1309
0.135171
0.139326
0.132026
0.134249
0.127132
0.152268
0.128682
0.12427
0.133747
0.129375
0.138817
0.130552
0.12751
0.121645
0.0996843
0.0989983
0.000234109
0.00525978
0.157427
0.166264
0.138512
0.1033
0.10613
0.139297
0.133949
0.139811
0.139606
0.138299
0.0604113
0.0692944
0.0706126
0.123643
0.139206
0.224055
0.126396
0.106956
0.10301
0.104552
0.138676
0.00907979
0.131226
0.132614
0.100565
0.106545
0.0389556
0.148817
0.140513
0.235256
0.203061
0.138315
0.138526
0.138483
0.0955392
0.158219
0.146348
0.128389
0.126573
0.145533
0.118738
0.120475
0.114396
0.139816
0.127137
0.13724
0.133784
0.158675
0.147639
0.0748097
0.0693472
0.118393
0.119856
0.143324
0.140222
0.000734777
0.149714
0.181871
0.142216
0.140346
0.139992
0.139297
0.13983
0.126702
0.1344
0.139171
0.0557204
0.0556037
0.0593988
0.139075
0.138178
0.138381
0.137979
0.139706
0.143323
0.147605
0.114748
0.0374758
0.139477
0.138111
0.145584
0.153674
0.0496536
0.0450235
0.121967
0.118905
0.16122
0.218806
0.159281
0.177538
0.0555593
0.0562029
0.110517
0.114351
0.117735
0.0850789
0.0912701
0.137818
0.137639
0.137367
0.170614
0.141028
0.13878
0.138706
0.133951
0.135741
0.139116
0.138586
0.132621
0.133066
0.13098
0.139745
0.136909
0.145665
0.14926
0.000438497
0.00413586
0.117317
0.113331
0.122314
0.0635092
0.0592297
0.168002
0.170252
0.158066
0.00567146
0.00666114
0.0794234
0.0412703
0.13567
0.0391322
0.0721852
0.0327134
0.0441343
0.0621049
0.0863995
0.0857714
0.0709
0.0862735
0.0860216
0.0939347
0.0948219
0.0785237
0.0409897
0.0771119
0.0433521
0.0586999
0.097383
0.0968928
0.0645169
0.0645606
0.0629767
0.02881
0.00308277
0.0307553
0.00445599
0.0027701
0.0703416
0.0516025
0.0518177
0.0703269
0.0320605
0.0516908
0.0248415
0.0577562
0.0346124
0.0789607
0.0495648
0.0486434
0.0623453
0.0386389
0.0547654
0.0217343
0.0260182
0.062064
0.0279677
0.0616044
0.0635051
0.092752
0.105563
0.0390979
0.0547976
0.0962085
0.0467462
0.0836113
0.0836988
0.0689354
0.0687382
0.0517107
0.0515591
0.0244114
0.0873318
0.0864037
0.0149208
0.072638
0.0271197
0.00156005
0.0650365
0.0947514
0.0438345
0.0015441
0.00136029
0.0937327
0.0813303
0.0152107
0.00421063
0.090989
0.0916916
0.0551504
0.0498636
0.0513002
0.0898487
0.0964624
0.04858
0.0385271
0.0402827
0.0599058
0.0773393
0.0769523
0.0330683
0.0298419
0.0306288
0.0303088
0.0677488
0.060362
0.0485003
0.0518854
0.0360966
0.0582136
0.0100997
0.0540078
0.0570106
0.0720639
0.0794813
0.0426107
0.0684674
0.039592
0.0424696
0.0724655
0.0611215
0.0590009
0.0745795
0.0480381
0.0679295
0.0796355
0.0504441
0.043007
0.0413431
0.0677984
0.0692955
0.0887699
0.00943107
0.0412448
0.00141234
0.0292926
0.0883215
0.104946
0.0519669
0.0489278
0.0717392
0.0516743
0.0471783
0.0694467
0.00934175
0.0490118
0.0705071
0.067499
0.118421
0.118337
0.0348746
0.0353756
0.0969749
0.0580569
0.0839303
0.0596957
0.0558054
0.079517
0.0618535
0.0173718
0.0434529
0.0305888
0.0442081
0.0703519
0.0759212
0.0766667
0.0782882
0.0207167
0.0234589
0.0797852
0.0295577
0.0300871
0.0675908
0.065525
0.0735192
0.0607468
0.059673
0.0860338
0.0602661
0.0656282
0.0346898
0.0800927
0.0799499
0.0799332
0.0552104
0.0529416
0.0508559
0.0472473
0.105162
0.0672044
0.0682115
0.0338628
0.0325651
0.0319664
0.0639951
0.0890426
0.0901631
0.0828114
0.099191
0.0620318
0.0645624
0.063119
0.0536404
0.0882238
0.0559776
0.0330724
0.0316609
0.0808502
0.0685723
0.043888
0.127203
0.0417578
0.0401697
0.0389182
0.0432182
0.0321787
0.0709484
0.0705473
0.0193939
0.0845639
0.0360183
0.0852742
0.0837002
0.0835525
0.0791823
0.0479807
0.049697
0.0330644
0.0859318
0.0868318
0.0836827
0.0828574
0.0843324
0.0503318
0.0715009
0.010307
0.0690782
0.0833901
0.0845598
0.0196137
0.0187533
0.0658875
0.0508554
0.0849486
0.0932688
0.0805479
0.0767531
0.0382428
0.0925288
0.0795576
0.0150341
0.0541183
0.085496
0.0954635
0.0949437
0.0947421
0.0908308
0.0693658
0.02193
0.0774672
0.0814226
0.0439535
0.0612136
0.0572107
0.0437797
0.0338278
0.0928733
0.0488253
0.0322106
0.0266714
0.0282584
0.00528426
0.0584749
0.0581051
0.0604362
0.0243945
0.0616095
0.0609228
0.0940441
0.0555425
0.0385361
0.0366362
0.083722
0.0493773
0.066421
0.0430281
0.0560152
0.126136
0.0877482
0.0817763
0.0752734
0.081773
0.0827989
0.0849588
0.0710282
0.0237431
0.105664
0.100776
0.0152599
0.10042
0.031563
0.0671139
0.0633794
0.0660577
0.0897674
0.0548056
0.0532326
0.0489058
0.00382543
0.0435502
0.0342851
0.0185607
0.0141422
0.0779485
0.0875822
0.0546297
0.0566003
0.0545997
0.0466883
0.0925126
0.0894994
0.0844981
0.0833914
0.0652712
0.0623233
0.0395097
0.0411805
0.0387112
0.0545214
0.0529163
0.0381872
0.0805502
0.0816332
0.0620045
0.0642294
0.0454067
0.0454322
0.00791997
0.00561155
0.0451142
0.0410609
0.0372892
0.115552
0.109647
0.0482352
0.0454337
0.0357847
0.0331439
0.0299353
0.058111
0.0517088
0.0567043
0.0651653
0.030441
0.0961261
0.0919276
0.101763
0.101164
0.10001
0.0846757
0.105913
0.103242
0.0956342
0.0566577
0.0294198
0.0310709
0.0248915
0.0776569
0.0573345
0.0511009
0.0581651
0.052555
0.0777483
0.078387
0.0780466
0.059198
0.0533076
0.0542808
0.0636555
0.0615686
0.0708792
0.0702377
0.0615032
0.0541053
0.0555381
0.0722515
0.0751298
0.041337
0.03941
0.0693043
0.0686264
0.0688913
0.0689573
0.0575388
0.059327
0.0564383
0.0887332
0.0554735
0.086384
0.0554672
0.035779
0.00108056
0.0660058
0.0457149
0.0449269
0.101951
0.100665
0.102401
0.0684401
0.067509
0.0683162
0.0413231
0.0770865
0.0750104
0.0783221
0.0817706
0.0814315
0.080254
0.0800847
0.0575851
0.0599733
0.088481
0.0117849
0.0740983
0.0301037
0.0916133
0.0646722
0.0398582
0.122227
0.0167135
0.0698879
0.0709439
0.0577533
0.0455754
0.0439174
0.046947
0.0866538
0.10637
0.103353
0.0890224
0.0852283
0.060284
0.0612256
0.0576513
0.0470228
0.0936653
0.0934216
0.037282
0.0388428
0.0822713
0.0345686
0.0324173
0.0331032
0.0634757
0.0614223
0.0611355
0.00972175
0.0161882
0.000639309
0.0916751
0.0884982
0.101812
0.0793142
0.000774792
0.0527377
0.0508801
0.0893524
0.0533422
0.0557575
0.0553124
0.0536269
0.0644505
0.0659977
0.0775362
0.0801454
0.0467963
0.0450229
0.0613715
0.0152791
0.0412259
0.0424611
0.000569924
0.0924453
0.0919017
0.0940417
0.0837091
0.0307603
0.0290677
0.0314888
0.010439
0.0293193
0.0273865
0.0653064
0.0643618
0.0788179
0.093835
0.0936553
0.0930653
0.100597
0.0992587
0.0995938
0.0412108
0.0961681
0.0939148
0.088519
0.0869693
0.0877173
0.000530699
0.0415117
0.0592142
0.0815485
0.103768
0.10197
0.102478
0.103308
0.085933
0.0862219
0.0385054
0.0342508
0.108552
0.000941811
0.0764256
0.0752027
0.0651363
0.0659169
0.0636252
0.000996586
0.0935831
0.0886623
0.000458255
0.000731895
0.00195988
0.0799271
0.080011
0.0797885
0.0518784
0.0350895
0.0377012
0.0962181
0.0734399
0.0620203
0.0630092
0.0612482
0.0640807
0.0638245
0.0501854
0.000613089
0.0994772
0.0647929
0.0652369
0.0634792
0.0378612
0.0372622
0.0917533
0.0923967
0.0915809
0.0934035
0.0931605
0.0956807
0.0659932
0.00049438
0.0559021
0.031034
0.10689
0.104088
0.0205027
0.0189274
0.0523296
0.0523489
0.0691653
0.0634463
0.0636223
0.0623402
0.0744747
0.0764072
0.0412373
0.0365117
0.0675411
0.000624468
0.000403974
0.0708155
0.0520127
0.0506746
0.014141
0.0144868
0.0629049
0.0328113
0.0313849
0.0452888
0.106142
0.102406
0.0840931
0.0814684
0.0215806
0.0698577
0.0371521
0.0799498
0.0800084
0.0816193
0.0797316
0.0462801
0.0431864
0.000449201
0.000756699
0.0628699
0.0755251
0.0749616
0.000356251
0.0751108
0.076255
0.0855779
0.0508417
0.0473282
0.0488289
0.0779123
0.0909874
0.0946926
0.0954934
0.09639
0.096337
0.0341131
0.0242802
0.0930308
0.0943645
0.0948182
0.0924779
0.0796807
0.0776967
0.101659
0.0973817
0.0768447
0.074651
0.0825946
0.094772
0.0962394
0.00120094
0.00259913
0.0658135
0.0670442
0.0668509
0.0658053
0.0489325
0.0694304
0.0716636
0.0724729
0.0756942
0.0629622
0.0629728
0.0408145
0.0377336
0.0397527
0.0384661
0.0921546
0.0878768
0.0866416
0.0885813
0.0615339
0.0632596
0.0613804
0.0632693
0.0519544
0.0537553
0.0547104
0.0512164
0.0435913
0.0469336
0.0431192
0.000623919
0.00107831
0.0479487
0.0479088
0.0633866
0.0612293
0.0619781
0.062648
0.0272015
0.0300941
0.112657
0.114718
0.107911
0.0378064
0.0901096
0.0924245
0.0644616
0.0648565
0.0650402
0.0645527
0.095092
0.0848615
0.0750997
0.0741984
0.0849794
0.0859729
0.0516363
0.0500784
0.0498776
0.0517579
0.0909865
0.0915128
0.0907526
0.0916779
0.0192255
0.0200846
0.0876551
0.089595
0.0893874
0.0877044
0.0879944
0.0652308
0.0650728
0.0665924
0.00151655
0.0316793
0.0301525
0.035517
0.0573676
0.0581295
0.0553102
0.0569231
0.0922298
0.0387184
0.039955
0.0624698
0.0641674
0.0619637
0.0553452
0.0578701
0.0573117
0.0482981
0.0680516
0.0680458
0.0675629
0.0686188
0.0534922
0.051863
0.053998
0.0525117
0.0540989
0.0527431
0.0640754
0.0655233
0.0662364
0.0632312
0.0755218
0.0749002
0.0763201
0.110813
0.10798
0.109189
0.0931598
0.0906039
0.0906578
0.0910772
0.090218
0.066083
0.0656439
0.0651539
0.066561
0.0342445
0.0379716
0.0396389
0.0560475
0.0582614
0.056368
0.00575241
0.00597202
0.060078
0.0403238
0.0200802
0.0239494
0.0443237
0.0425292
0.0444622
0.0568613
0.0737646
0.0710293
0.0511302
0.0530075
0.137114
0.137345
0.0217098
0.0625609
0.0610269
0.0626376
0.057613
0.054835
0.0230972
0.0460969
0.045519
0.0211694
0.0267449
0.0816842
0.0718248
0.0708063
0.0711961
0.0714759
0.00795027
0.00778505
0.0621609
0.0591756
0.0617674
0.0587197
0.0277673
0.0723726
0.0980692
0.00773011
0.0779205
0.0751282
0.096282
0.0982736
0.0968147
0.0502454
0.0458372
0.0515297
0.0634313
0.0629027
0.0835257
0.0801821
0.0814809
0.103337
0.104934
0.104518
0.103672
0.0684878
0.0701167
0.0692486
0.0189355
0.0183533
0.0611511
0.0592638
0.0593797
0.0948231
0.0985332
0.088021
0.0888574
0.0894263
0.0873945
0.0605701
0.0573409
0.0587505
0.0590495
0.0313652
0.042133
0.0409651
0.0757227
0.0729475
0.0743595
0.0744197
0.052377
0.0519051
0.0532274
0.0510601
0.0775625
0.0781813
0.077965
0.061703
0.060786
0.0638157
0.0582664
0.0586979
0.0591468
0.0578349
0.0266088
0.0232612
0.022784
0.0277872
0.043022
0.0523799
0.0488378
0.0490504
0.0690091
0.0705771
0.0691988
0.0631082
0.0607253
0.0408158
0.0389502
0.0398058
0.0399006
0.0124105
0.00941764
0.0822399
0.0795609
0.0805583
0.0811384
0.0845916
0.0861772
0.0822115
0.103661
0.118921
0.0868435
0.0889951
0.0597499
0.0580365
0.058874
0.111256
0.107778
0.136524
0.0758868
0.0759592
0.0735366
0.0619104
0.0594602
0.0609486
0.0431062
0.0425614
0.0436907
0.0419007
0.0931962
0.0933597
0.0922273
0.0571097
0.0580258
0.0589759
0.042061
0.0406378
0.039838
0.0430973
0.042971
0.0489458
0.0513716
0.0505841
0.0496308
0.0463061
0.0431962
0.0453222
0.0921939
0.0930995
0.093584
0.091837
0.0282712
0.0630344
0.0456503
0.0455059
0.0442565
0.0703241
0.0706323
0.0708219
0.0702196
0.0446399
0.0456858
0.0459558
0.0444825
0.0611694
0.0601414
0.0635702
0.0115788
0.0102121
0.0119054
0.0637229
0.0869616
0.0840232
0.0854318
0.0796565
0.111848
0.111688
0.07509
0.0381247
0.0704133
0.0581183
0.0575024
0.0597334
0.059223
0.0581214
0.070232
0.0700978
0.0852729
0.0874843
0.0839847
0.0603918
0.0617764
0.0619503
0.0906584
0.0899103
0.0899819
0.0905269
0.04244
0.0418937
0.0435975
0.0406605
0.0272472
0.0222993
0.0247401
0.0894619
0.0884626
0.0891177
0.0927658
0.0910302
0.0918936
0.0918302
0.0411186
0.0366277
0.0376432
0.0311371
0.0298802
0.030675
0.0857055
0.065991
0.0679148
0.0674632
0.0664312
0.0549352
0.0581483
0.097551
0.0972701
0.0978646
0.0848884
0.0671627
0.067745
0.0672394
0.0948087
0.0957435
0.0936834
0.0402524
0.0414998
0.0401936
0.04145
0.050087
0.05103
0.0554469
0.0579132
0.058093
0.0893461
0.0892694
0.0875349
0.0856831
0.08531
0.0849148
0.0515256
0.053299
0.0543006
0.0509198
0.00680668
0.00812084
0.0526729
0.0338505
0.0417931
0.0328148
0.0898463
0.0892692
0.0922833
0.000837021
0.00826185
0.05589
0.0568063
0.057051
0.0813277
0.0810357
0.0562974
0.0148721
0.0807781
0.0804982
0.0816237
0.0795829
0.117722
0.117186
0.119212
0.0483676
0.0457546
0.0474183
0.0689943
0.0697279
0.0890685
0.086787
0.0873952
0.0885697
0.0532743
0.0523029
0.0541121
0.0936661
0.0933554
0.0943829
0.092731
0.0293193
0.0292931
0.0493755
0.0454727
0.0567798
0.0594551
0.0574731
0.0578527
0.058951
0.0272703
0.0218108
0.0651088
0.063508
0.0646615
0.0636784
0.0575561
0.0707505
0.0712891
0.0869333
0.10081
0.100597
0.100058
0.101497
0.052139
0.0511236
0.0529551
0.0146052
0.0152487
0.0676078
0.068526
0.0672882
0.0600218
0.0610857
0.0592164
0.0617853
0.0727567
0.0720734
0.0978613
0.106038
0.102521
0.0996009
0.0990356
0.0984316
0.059629
0.0627003
0.0614881
0.0607237
0.062912
0.0633313
0.0648457
0.0473945
0.0461707
0.0471294
0.046518
0.12991
0.127916
0.046559
0.0453693
0.0653348
0.0664908
0.0672475
0.064501
0.0923849
0.0904772
0.0919179
0.0909628
0.119662
0.0898083
0.0893612
0.0604147
0.0625388
0.0618818
0.0606877
0.0543258
0.0562316
0.0917189
0.107828
0.106371
0.109006
0.0761426
0.0736078
0.0745558
0.0752029
0.0348082
0.0523554
0.047939
0.0231042
0.0205076
0.0600984
0.0628356
0.0624888
0.0610625
0.0182874
0.00379765
0.0906282
0.0910957
0.0267761
0.0913439
0.0902714
0.041962
0.0978337
0.10033
0.0764736
0.0794062
0.0488934
0.044801
0.0812035
0.0663387
0.0659502
0.0668393
0.0745483
0.047478
0.044791
0.0462883
0.0478243
0.046618
0.047711
0.0466235
0.12318
0.124407
0.047138
0.0364416
0.0367321
0.0375275
0.0356111
0.0471767
0.048902
0.0466355
0.0495264
0.138753
0.09221
0.0905158
0.0922577
0.0902565
0.0524594
0.0503003
0.0453028
0.0484588
0.0477544
0.0535551
0.0536229
0.0554924
0.0517701
0.138008
0.138192
0.0735033
0.0759854
0.0756681
0.0183596
0.0163094
0.0314825
0.0593698
0.0577311
0.0573451
0.059648
0.0795323
0.0811895
0.0109481
0.0457079
0.0416724
0.0379717
0.0411763
0.0375854
0.0588613
0.0568916
0.0607141
0.000351812
0.0892115
0.0906858
0.0880002
0.108313
0.0984084
0.072122
0.0572332
0.0663093
0.0685487
0.0653987
0.0952523
0.0959495
0.0533449
0.0561613
0.0541399
0.0659714
0.0627775
0.0637095
0.0617527
0.078732
0.0804345
0.0775354
0.120499
0.115126
0.113466
0.113769
0.114891
0.0485273
0.0469097
0.049496
0.04624
0.000144909
0.0549395
0.0577072
0.0568702
0.0677865
0.0660847
0.0706366
0.0333259
0.00587744
0.095969
0.0660979
0.0668348
0.0647306
0.0649782
0.0386125
0.040014
0.0379086
0.103793
0.104693
0.103162
0.105248
0.108792
0.0717906
0.073522
0.0736361
0.0715865
0.0841592
0.0831737
0.0681001
0.0673652
0.0971476
0.0960706
0.0966548
0.0964199
0.0270083
0.0292754
0.0276965
0.033712
0.0339599
0.0329953
0.0346648
0.064165
0.0630963
0.0631703
0.0637824
0.0225777
0.0691396
0.0680055
0.068269
0.0137885
0.0467199
0.0433811
0.0455139
0.0442956
0.047939
0.0511628
0.0479749
0.0920081
0.0914664
0.0919049
0.080187
0.080196
0.0499878
0.051031
0.047928
0.0527168
0.0820503
0.0812215
0.0827246
0.080476
0.0609771
0.059827
0.0604935
0.060309
0.0893419
0.0889049
0.0895496
0.0886633
0.00423356
0.0040211
0.00491951
0.0122108
0.0516893
0.0492718
0.0424735
0.0410254
0.0415567
0.0419591
0.0407019
0.108842
0.108401
0.107681
0.10972
0.0817497
0.13578
0.134805
0.135083
0.135242
0.0673542
0.0682574
0.0671959
0.0127418
0.032859
0.034999
0.0738469
0.0742488
0.07303
0.0897928
0.0896478
0.0895646
0.000193081
0.0513838
0.0500993
0.0500458
0.0959804
0.0712779
0.0715481
0.0714087
0.0469849
0.0480918
0.0479438
0.0726356
0.0682924
0.0698125
0.0676824
0.0702899
0.000462072
0.0552873
0.052722
0.0546326
0.0516203
0.0707564
0.0677294
0.0723409
0.0575943
0.0595568
0.0638257
0.0626339
0.039502
0.0789616
0.077716
0.077359
0.0792903
0.124402
0.0585544
0.0595999
0.000660038
0.121372
0.121057
0.0875893
0.0873693
0.0868735
0.0880805
0.0575656
0.0525895
0.056433
0.0544405
0.0517752
0.0543401
0.133299
0.0688747
0.0721067
0.0700501
0.0708144
0.0516378
0.0521281
0.0454444
0.0471243
0.0464447
0.0425442
0.0387615
0.0402128
0.0393238
0.0397053
0.00118091
0.0481011
0.0481314
0.0464303
0.0497901
0.0961085
0.0971207
0.0961816
0.0283075
0.0248775
0.054642
0.0546117
0.0725794
0.0568717
0.057833
0.137192
0.0756945
0.0869722
0.0862319
0.0873292
0.0857614
0.13301
0.138193
0.0252366
0.0102115
0.00996435
0.0194792
0.0408924
0.00567054
0.0111881
0.0114889
0.0165245
0.0928125
0.0504543
0.138601
0.00956483
0.00997111
0.00567442
0.00503043
0.13859
0.138428
0.138452
0.138265
0.00878818
0.0595696
0.0589983
0.122302
0.117821
0.127591
0.125509
0.092706
0.0964008
0.0139768
0.0077254
0.000319417
0.0746039
0.000963995
0.019107
0.000588965
0.00781708
0.00963439
0.130839
0.0808275
0.0351568
0.0311939
0.0261667
0.000365392
0.139165
0.00492213
0.00483877
0.00572351
0.0899893
0.00464401
0.14905
0.144449
0.00728697
0.137887
0.000197681
0.0254197
0.0238803
0.0119134
0.0143541
0.0179565
0.120791
0.089733
0.0223325
0.137298
0.137406
0.0409576
0.026082
0.0242075
0.0798183
0.100009
0.135791
0.136404
0.0263459
0.0248112
0.129603
0.00808078
0.00164442
0.00033841
0.120344
0.118626
0.00101972
0.00538206
0.0254387
0.000960823
0.000428487
0.00416566
0.121473
0.114844
0.118169
0.117879
0.00295313
0.0442175
0.00622948
0.000245982
0.0228251
0.114155
0.117954
0.0347021
0.00621828
0.00342357
0.00313305
0.130529
0.0402908
0.132103
0.12962
0.130968
0.167807
0.0150723
0.089808
0.00407016
0.00506354
0.000953678
0.112699
0.006693
0.0359696
0.0123713
0.0362461
0.0339786
0.0340416
0.0345379
0.0209122
0.0217294
0.0219234
0.0177106
0.0247742
0.0360474
0.00856718
0.00882726
0.00194402
0.00342119
0.0257212
0.0188336
0.0164746
0.00429713
0.00495093
0.0301183
0.0318751
0.021146
0.0200882
0.0210299
0.00214035
0.00588438
0.0149433
0.000947076
0.000349071
0.000529866
0.016875
0.000637533
0.000816127
0.000332291
0.00049514
0.00844587
0.00107545
0.0644255
0.0183237
0.0479333
0.0268011
0.00543355
0.00676454
0.0357461
0.0329482
0.0719771
0.0200745
0.110787
0.0325998
0.095126
0.00068909
0.00595722
0.132902
0.00412923
0.0970813
0.0799317
0.133097
0.132258
0.0349279
0.0109223
0.138338
0.123216
0.124261
0.0164915
0.0725897
0.0717712
0.132064
0.00422001
0.00633353
0.00319731
0.0053873
0.00589556
0.00534894
0.00961151
0.00420511
0.129863
0.0335583
0.00451514
0.00595035
0.00691727
0.00936218
0.02854
0.027928
0.0475848
0.110521
0.00818886
0.000189747
0.137818
0.137676
0.0231887
0.0222244
0.0296466
0.0284642
0.0260187
0.0795826
0.0234801
0.00875064
0.00135412
0.0100867
0.0465939
0.0431972
0.112831
0.0976741
0.00266892
0.00288873
0.134238
0.0507668
0.0280533
0.0386117
0.0394763
0.00642483
0.0791478
0.137964
0.0165197
0.0176627
0.01554
0.136522
0.13686
0.0349663
0.0304433
0.00694415
0.0603281
0.0654614
0.0313762
0.028205
0.0104776
0.0118155
0.13507
0.136285
0.0674715
0.150555
0.143751
0.138589
0.138413
0.013519
0.12027
0.00747389
0.00681433
0.058144
0.00788892
0.00874548
0.00905867
0.0152511
0.114187
0.00852063
0.00959698
0.0235519
0.00526794
0.00557302
0.128766
0.00807363
0.0332321
0.00742537
0.0603855
0.136854
0.136945
0.00184833
0.11465
0.000818438
0.0208226
0.0716746
0.0744008
0.0720387
0.0331395
0.0327
0.0111635
0.0121461
0.0212585
0.0459744
0.0243565
0.228171
0.184917
0.000468056
0.0388926
0.0389739
0.0375695
0.03761
0.00825333
0.00333947
0.0596968
0.0400425
0.048483
0.0498504
0.0443086
0.026825
0.0110199
0.12545
0.122011
0.1252
0.138028
0.138112
0.025356
0.0346675
0.0249822
0.0357243
0.0374007
0.0991598
0.0926051
0.107144
0.0454079
0.0392609
0.0256863
0.112488
0.0337925
0.065078
0.0669703
0.0690243
0.0435498
0.0288423
0.0765124
0.0748747
0.104084
0.13842
0.111137
0.108953
0.130621
0.121352
0.0152233
0.0230042
0.0164543
0.119592
0.118096
0.128334
0.0086497
0.0100747
0.0642287
0.0460948
0.0352786
0.0306149
0.0279808
0.0547192
0.0545624
0.056262
0.0423739
0.0157254
0.0304578
0.0297883
0.0233581
0.0256671
0.136793
0.137182
0.136775
0.137175
0.0146378
0.0143601
0.126208
0.0234268
0.0230955
0.0312322
0.0282888
0.0280127
0.0317757
0.0346313
0.0341481
0.137853
0.136172
0.135613
0.0974363
0.0814203
0.0725759
0.136331
0.0256287
0.0228254
0.011806
0.102233
0.27579
0.214081
0.240095
0.0609815
0.0595233
0.0869017
0.0342788
0.0334951
0.0303101
0.00137607
0.214159
0.0137911
0.0528273
0.0564425
0.0551937
0.05355
0.00243584
0.136089
0.136647
0.0105205
0.0396213
0.117294
0.138864
0.138917
0.115116
0.114668
0.000287482
0.0428238
0.0868895
0.0596312
0.0608678
0.061035
0.000404935
0.124759
0.127666
0.122898
0.137261
0.136877
0.0422117
0.0364953
0.0387415
0.0241327
0.0342649
0.0450092
0.0454919
0.0436818
0.0941761
0.000692943
0.121221
0.118354
0.0169041
0.00191368
0.104532
0.109743
0.12213
0.11819
0.0432632
0.0424837
0.0208856
0.133374
0.0462639
0.0456753
0.0477007
0.047595
0.196735
0.186376
0.036418
0.0354617
0.0342029
0.00800461
0.0101552
0.015881
0.0179409
0.0194843
0.037147
0.0229795
0.0495543
0.0478566
0.0401624
0.117249
0.120036
0.00169472
0.0381531
0.0564408
0.0576144
0.059324
0.0367156
0.0409826
0.0567772
0.13846
0.0125432
0.0543752
0.0580683
0.0569539
0.122629
0.122183
0.0133422
0.135174
0.0233631
0.00889241
0.0621244
0.0647819
0.0668207
0.0605865
0.0599506
0.095933
0.10147
0.0406142
0.0390302
0.0210552
0.0221299
0.0283402
0.0253396
0.016492
0.0132022
0.0155334
0.0405642
0.0422716
0.0213732
0.00311323
0.106717
0.0317582
0.0314571
0.0326792
0.0109407
0.0207008
0.124873
0.123752
0.0837366
0.0842532
0.0834417
0.0196642
0.0631453
0.00932607
0.000869241
0.138798
0.0576676
0.0340089
0.0322728
0.0346212
0.0491453
0.0358043
0.000516724
0.140425
0.0578777
0.0864292
0.0194579
0.0253574
0.0656383
0.0289382
0.0276739
0.0111758
0.081567
0.0345977
0.004332
0.126967
0.119197
0.0986842
0.0994421
0.107596
0.00141748
0.00378832
0.0484044
0.0134184
0.0500991
0.0542686
0.0441356
0.0443795
0.0429959
0.0432229
0.0467054
0.0185579
0.0193019
0.119385
0.116738
0.138881
0.138815
0.0928314
0.091113
0.00560384
0.0374326
0.0351324
0.0198747
0.0208264
0.0694954
0.067301
0.00535351
0.0279604
0.0232297
0.0542846
0.0597285
0.120294
0.117654
0.096254
0.138521
0.138409
0.0505691
0.0496121
0.0573087
0.0565308
0.0354175
0.0322013
0.104829
0.0178664
0.019337
0.0487463
0.0510837
0.0517966
0.0507654
0.0587543
0.0564995
0.0838073
0.0833429
0.0820828
0.0932072
0.094052
0.0953905
0.0418411
0.0421796
0.126615
0.134719
0.135316
0.0156579
0.00910374
0.12978
0.127379
0.0433075
0.0447463
0.0467772
0.046263
0.0846141
0.13623
0.144593
0.00178145
0.0384247
0.0392699
0.0411372
0.117515
0.0362781
0.139067
0.140601
0.0859158
0.0343257
0.0357842
0.0926596
0.0939244
0.0900312
0.0889414
0.0962422
0.0947971
0.0119051
0.00994492
0.0693402
0.0699611
0.13927
0.139214
0.139365
0.116196
0.0389367
0.129453
0.0576287
0.0623757
0.0725774
0.0696334
0.0179793
0.0457503
0.0446328
0.10646
0.107948
0.0376391
0.13041
0.0260152
0.021618
0.138428
0.138236
0.102924
0.0906663
0.0870287
0.0880087
0.0893132
0.0201329
0.0223317
0.123607
0.0338886
0.0352543
0.0567557
0.154657
0.166196
0.0457285
0.137945
0.137617
0.0352003
0.0274631
0.13853
0.0800019
0.0830607
0.0815235
0.0368792
0.0376958
0.0611307
0.0650833
0.0450455
0.0433376
0.134598
0.00347404
0.0541159
0.0543826
0.0522686
0.0518008
0.0344466
0.122553
0.119001
0.115113
0.0738224
0.070503
0.0724763
0.121712
0.117158
0.112471
0.0700417
0.0713983
0.0708676
0.133415
0.134683
0.134189
0.0882109
0.0771597
0.0548615
0.0564304
0.0159233
0.014307
0.0162794
0.116267
0.102304
0.108685
0.113804
0.0610278
0.138806
0.130734
0.128685
0.0233314
0.0260732
0.0630276
0.0642999
0.0918001
0.0909018
0.0899659
0.121924
0.124311
0.117979
0.0838693
0.0867078
0.0870434
0.123979
0.12482
0.125859
0.0597166
0.0571794
0.136923
0.137265
0.137444
0.063141
0.0615567
0.0610684
0.129106
0.130137
0.0675813
0.0679928
0.00769365
0.0622631
0.062235
0.0542824
0.0541623
0.0176717
0.0189394
0.0523814
0.0546942
0.0547593
0.0720673
0.202156
0.256473
0.0420728
0.00302563
0.0680346
0.000739874
0.0873571
0.0883036
0.0392634
0.0145457
0.133116
0.138097
0.138174
0.122852
0.123878
0.0483525
0.0470409
0.138558
0.0777256
0.0772902
0.00655692
0.13638
0.13732
0.137711
0.0629646
0.0622005
0.131993
0.107299
0.105251
0.126932
0.123112
0.13138
0.131518
0.0454077
0.0461663
0.0853946
0.0873853
0.0110864
0.0966381
0.101446
0.180857
0.15308
0.0977394
0.0977273
0.118052
0.11161
0.0747117
0.0745941
0.154857
0.141617
0.141683
0.0431978
0.0417811
0.0423781
0.056604
0.0560256
0.0145166
0.134921
0.140702
0.127547
0.0681115
0.0635666
0.0769276
0.0766779
0.127498
0.128795
0.12938
0.039401
0.0420277
0.0793041
0.0801655
0.111097
0.112874
0.0346308
0.038121
0.0665893
0.0659365
0.0304378
0.0312515
0.0332249
0.107747
0.112236
0.106793
0.0260155
0.0597927
0.0598526
0.0599403
0.047111
0.0471099
0.0452861
0.0441684
0.0461508
0.151246
0.0376103
0.0410594
0.060814
0.0609882
0.0741376
0.0742485
0.0751867
0.0798041
0.0774364
0.0753478
0.0640428
0.0618969
0.0408262
0.0419963
0.0406042
0.0424764
0.0434655
0.056304
0.0582473
0.017074
0.0263709
0.0276952
0.025641
0.0231716
0.0257151
0.00066873
0.137353
0.136503
0.135728
0.138235
0.138522
0.0730423