/*--------------------------------*- C++ -*----------------------------------*\
  =========                 |
  \\      /  F ield         | OpenFOAM: The Open Source CFD Toolbox
   \\    /   O peration     | Website:  https://openfoam.org
    \\  /    A nd           | Version:  6
     \\/     M anipulation  |
\*---------------------------------------------------------------------------*/
FoamFile
{
    version     2.0;
    format      ascii;
    class       volScalarField;
    location    "1000";
    object      p;
}
// * * * * * * * * * * * * * * * * * * * * * * * * * * * * * * * * * * * * * //

dimensions      [0 2 -2 0 0 0 0];

internalField   nonuniform List<scalar> 
29874
(
2.94412
0.17111
0.175715
-2.92653
0.181213
-4.55158
-1.17609
0.737826
2.57054
0.593447
-2.42023
-0.043162
-2.02334
-0.28101
-2.1742
-4.37569
-2.96731
-3.2824
0.39164
0.00456192
3.23453
-1.8044
1.22621
0.90062
3.84023
-0.703055
-2.12592
0.246488
0.452828
-2.7164
-2.55932
-3.66715
-0.606174
0.974458
2.86438
1.42548
2.84744
-1.73308
1.39743
-1.08643
1.0088
1.18106
1.43507
3.23157
-2.47374
1.73428
0.981085
-0.837506
-2.94292
4.18781
-0.371483
-2.49196
-4.12746
2.57224
-0.312996
-0.800921
-0.660038
0.863556
1.80089
-2.23688
-0.682685
2.18626
1.52373
6.16323
0.292803
0.989569
0.321586
1.1415
0.629637
0.55461
-1.98345
-1.50173
7.61637
0.533052
1.24857
-2.64791
-0.943062
-2.38716
4.54973
2.58292
-3.36727
-0.290921
1.02629
-1.54896
14.5865
12.38
0.48604
0.289943
-1.79076
-1.00022
18.2742
1.1807
1.24624
-0.605354
0.14339
2.96858
0.518389
14.3995
19.658
-0.281201
-0.305176
0.516137
0.960621
4.6648
6.3701
19.4979
17.6636
0.169447
0.681272
0.328879
17.9441
-1.62655
-1.78298
1.12775
1.03287
1.03233
1.96864
1.61241
24.3863
1.6914
1.3721
-3.49679
-0.0569626
-0.12866
-0.129158
3.36153
-1.24687
1.31566
1.68233
3.84206
0.739019
2.96716
2.54353
1.16245
0.78216
1.55827
1.04397
-0.186652
-1.65937
3.48496
0.984465
1.52014
-0.584508
5.59777
0.944049
2.90656
-1.22397
2.07241
0.590641
1.82238
-2.17311
-0.857699
-3.34781
-0.233346
-0.611557
1.16621
3.80823
-2.18753
-1.79917
-1.94924
-1.50061
4.37911
7.18261
0.84853
0.643862
0.955673
0.536506
3.35132
3.90741
1.02217
0.77644
0.627464
0.849798
15.8117
17.0864
0.767615
0.510069
24.2674
3.84152
3.92719
24.0743
24.0801
-1.46203
3.33307
4.18211
-4.54179
0.447728
0.515585
-0.170195
0.943278
0.957574
-4.85162
3.3865
3.5114
3.2671
1.78598
1.47413
-0.453301
23.9303
24.0328
-1.57087
-5.57506
3.32256
2.82483
2.2447
2.75613
2.26147
-6.2183
2.12353
2.23189
2.07992
0.529333
5.0777
3.39548
-1.3849
1.409
0.64857
0.470548
0.490888
0.704473
-0.957146
-4.63669
-0.335225
2.19
0.816958
0.519133
-0.33043
-0.145443
-0.590709
0.802722
0.829554
0.773764
-0.00467981
-0.542806
3.35257
3.47771
4.36724
-0.607225
0.37764
-0.622626
-1.82101
22.3257
21.6481
3.95001
3.05666
21.0758
21.3259
-10.1402
2.63941
-6.70233
16.1452
2.10622
-9.5058
19.5688
0.195663
20.7138
18.3907
23.3114
-7.05663
18.4696
-3.35703
19.5734
18.1851
-3.73778
-4.92179
-6.25463
-6.71791
3.31749
3.47244
24.6782
20.5636
20.9323
-6.75043
-8.13093
-0.105086
2.88569
-5.40632
22.7776
4.17565
-0.582399
-1.57517
0.23256
0.71604
2.36686
2.1044
3.25431
1.24285
0.841906
20.4679
20.2314
4.21063
2.91797
3.04331
-8.71745
-8.6423
18.3345
18.3121
-4.23139
-8.77392
-8.59703
-8.12779
19.28
3.31347
20.4645
3.1626
3.28538
20.2852
2.12384
-4.29193
23.6262
-8.54302
-8.54302
-4.62957
-5.095
-4.81595
18.799
18.8427
-4.4748
3.67342
3.75421
-5.56969
-10.2302
20.2178
21.4298
4.04172
4.07348
4.35852
-0.589029
18.5537
18.3224
3.46423
2.85416
18.5466
18.452
-8.51786
-5.06238
3.10033
2.63319
2.6477
2.5984
21.1016
-4.49026
21.482
21.1552
21.2505
21.3464
2.30292
2.63962
-9.37801
3.04362
2.07627
-3.15453
-9.72378
-8.92487
-9.09353
0.401896
20.753
20.3974
8.53349
24.7075
-4.06337
20.9132
-6.69736
21.3237
21.3815
2.92553
3.00326
2.69017
6.08576
20.1785
20.4521
19.5615
20.1275
0.877974
0.649548
19.761
18.6039
18.4346
18.8215
18.1064
21.2617
21.6521
3.33075
3.1449
3.41784
3.24019
-2.73868
2.39738
2.28403
2.09119
-6.99872
-8.30832
22.0292
-5.96872
-5.04272
-9.13164
-8.60618
-9.28744
-9.41832
2.86046
-5.91603
-6.47952
-6.00068
4.53764
4.50991
4.02345
21.34
21.0376
20.9165
20.8418
15.7018
16.9637
16.1833
15.8268
1.74528
19.0863
18.7694
19.1725
19.6893
21.1113
21.3556
21.6277
16.8019
17.8624
15.8422
16.8242
17.8064
16.3801
-1.16398
-0.584935
-4.79202
-5.41822
-5.46593
-4.93875
18.6539
-3.76637
-3.33656
17.7309
18.1625
19.0272
18.2995
18.1668
17.7661
19.7375
19.7809
1.64224
4.28401
4.35343
4.62396
3.59234
19.9786
19.789
20.7
15.2736
14.7078
15.2658
-6.01431
-5.60986
-5.93761
-5.42392
-6.31189
-5.1994
-7.02198
-6.21696
19.0709
18.6933
19.084
2.65316
1.06359
0.942795
1.00911
0.886226
0.736457
11.641
4.03653
3.91083
3.83105
19.416
19.7049
18.8866
-6.08894
19.7632
18.6558
18.9797
18.9981
1.12974
21.2642
21.5992
21.4267
20.8454
-2.07432
24.6621
-4.96974
-2.40435
24.2638
-0.515631
-2.44023
0.589038
0.66557
0.678664
-2.82987
-0.935294
2.60472
2.28964
-0.329853
5.5928
6.15853
4.26991
4.63015
-2.12058
1.47793
1.5946
10.7034
1.02505
1.1105
23.2711
0.597218
-4.25064
23.9712
-0.254965
0.97217
-1.16555
10.564
-1.78248
-1.71314
-1.94403
1.14342
0.608199
-2.01598
-2.17816
-2.16724
-2.05111
3.59932
3.69582
0.28456
0.373987
-0.420803
5.0087
2.76268
2.83883
-0.228218
-0.294834
24.1229
23.1096
-1.33385
-1.29227
-1.87733
-0.189578
0.163274
3.24634
-3.9012
0.76964
0.867614
-0.127331
-7.7033
-8.59142
-6.87968
9.27665
0.651298
-4.30652
-2.44807
-0.394747
-0.389781
-0.31314
-0.660506
23.3213
-3.07056
-2.76227
14.0845
13.2926
21.6383
-4.04599
-0.724608
-6.80347
-4.52331
-1.20777
-0.933322
1.20569
13.9252
-4.60729
-5.27949
7.53068
8.52358
-0.474262
2.84623
2.82357
-0.590245
0.646244
1.00447
0.832365
1.04625
-5.01484
-5.62754
17.7483
18.0902
2.54637
2.13733
3.91293
4.30168
24.1933
0.225023
-4.04954
2.02826
2.18981
2.39927
0.593334
0.655667
1.47973
1.49883
1.37991
18.7981
19.2601
18.8661
1.9081
1.95198
1.81002
2.13545
-5.69539
-5.13749
-4.91186
-0.458578
20.8881
3.89282
3.71828
3.43228
3.77011
18.2104
19.1863
9.33788
10.3218
3.22596
0.044494
2.84115
2.39285
-9.00047
-9.84204
12.4517
11.6613
10.8532
16.5092
15.9033
1.78477
1.87505
2.05067
-2.49663
1.46122
1.137
4.44441
5.22025
4.85257
-0.782559
-0.944447
6.0993
6.15453
6.79435
0.879392
-3.39969
-3.24799
-3.04026
24.6846
23.268
0.103644
0.23821
0.542497
19.0226
19.2312
-0.861532
-1.31522
-0.508405
-23.7716
-22.876
6.87207
-9.50567
2.99022
19.9626
3.33385
21.707
20.2283
1.49869
5.88491
5.29372
-11.3919
3.39318
3.29626
4.10408
4.27571
6.15545
-7.53582
-2.84659
19.0609
17.6899
3.11446
2.82192
-11.0891
-11.1754
-0.0114643
-12.447
23.6874
22.4836
21.9798
22.1818
0.3988
-3.86316
-3.4405
14.0341
19.2296
-3.55366
22.9683
-2.06205
20.454
6.24934
17.5269
17.7923
-0.631281
-8.58075
-10.4601
17.5652
17.8868
0.0133478
-13.0266
1.81503
2.43946
3.43828
2.60508
-8.38889
-2.61554
2.55662
0.603634
-1.04053
-1.26531
-10.9999
-10.7474
-3.61475
-3.28131
-14.5685
3.82627
3.61326
-18.2496
3.49254
-7.15512
-32.9712
3.23143
0.950721
-6.4692
-32.8005
-28.2427
3.47035
-16.3453
-18.7
19.6696
6.02754
6.25813
-2.70522
19.4617
19.2467
3.39409
2.15709
15.8254
21.9122
21.6921
-3.93764
5.60742
5.37536
-8.80203
-8.56639
-12.1271
-11.7347
-3.14187
-0.240976
16.76
16.7527
-6.1263
-1.11988
-4.5676
0.182236
-0.0415753
16.4894
15.3417
-7.60974
2.38829
-8.32122
-7.01015
3.60471
17.9251
18.1081
4.65379
-5.05048
-11.1325
9.27219
-12.4625
-10.0754
-10.1683
16.5173
16.5485
-15.5512
-23.6006
-11.705
14.8209
-16.7018
5.90635
3.43839
-4.37601
-5.5066
4.27267
19.3524
16.2828
2.05681
-23.4127
-4.94177
-1.09301
2.01274
4.29518
4.52382
-10.0245
-9.91954
3.37135
17.1812
2.43517
-0.327944
-2.53021
6.8715
-0.12879
22.2083
20.1996
-11.345
-7.02699
-2.70302
-1.97789
15.6434
14.4371
-0.66973
-1.42798
1.55006
-12.1497
-12.2187
-11.2649
-11.2283
0.600058
-0.584065
-0.7806
2.6354
-4.39333
-3.38828
-6.16881
8.69189
7.7432
7.18117
-2.51087
-3.21447
-13.634
-13.9806
4.41224
-1.82342
-1.66925
21.5049
21.7822
21.5457
-10.3325
6.68558
4.25197
8.0072
5.28858
16.1958
16.1676
-9.61641
-3.82187
3.51577
-3.1533
-10.9574
-11.8547
6.14233
-4.19054
-10.4836
3.09343
-7.37306
-7.94366
-8.74948
-9.28011
-15.355
15.4376
16.4904
16.0365
2.85377
-9.75903
2.90529
2.33855
5.69752
6.99318
-6.17947
-6.34117
-10.8056
3.04599
3.29353
2.57047
2.42068
2.67848
-4.15061
13.8675
-22.7562
0.23316
2.35719
2.54224
-7.03775
-7.15223
1.29118
17.9855
-11.0353
-12.1467
-11.7278
5.38047
20.1082
4.49477
1.67785
-20.8412
16.5123
14.2431
4.39579
4.28297
4.51553
0.967431
-1.99622
-18.6746
-0.396028
0.440803
-6.38472
-10.4181
-10.269
-2.01027
-15.7055
-1.75919
-10.4902
-12.084
18.4066
18.1045
23.9101
-10.3169
-10.0072
-10.2284
22.1112
16.1698
15.9308
3.1046
-10.1633
-9.22119
-10.0354
4.07376
-4.41172
6.00152
20.9196
-11.2708
3.25551
-0.606433
4.22818
3.80099
1.70268
1.91044
2.17317
-12.0444
21.8756
1.21859
1.85178
23.6227
2.95192
-3.32125
1.13618
1.03101
-11.017
13.0405
-0.219422
-0.322396
18.9201
-4.05431
-6.83499
17.5335
-5.92897
-5.43187
1.4629
4.85936
18.4662
18.3179
18.9101
16.8565
2.92069
1.87226
0.537986
0.673739
-3.40793
-4.06322
-8.97033
-7.84365
-8.89995
17.4864
17.727
19.9478
0.532323
0.837214
-10.7113
-11.0123
-7.64174
-7.89872
-4.69285
-4.19424
-5.97596
-4.01929
-3.40968
3.55671
3.07644
17.0721
17.7265
-10.4411
22.3437
17.7145
18.3778
-12.2703
-11.6105
-10.3495
-12.1369
4.72663
3.58246
3.72817
3.71479
3.64804
-8.41353
3.14152
3.57915
3.2758
-4.04807
-3.57392
-3.95975
-3.47713
2.35177
-12.3842
-11.2755
3.59619
18.8606
5.61095
6.24849
5.90482
18.4251
16.4773
16.4958
17.7736
18.0357
-0.698243
-0.196208
-0.907112
-2.7153
-2.14951
-2.32356
-2.23023
19.933
20.1764
-11.6274
-11.4145
-11.0688
-11.201
-3.13496
-2.19373
-2.91158
3.34508
-3.03519
4.57592
16.6314
-9.56303
18.5308
-10.9449
18.1451
18.2862
3.63369
3.66824
3.72515
1.9477
1.77874
2.28653
21.4473
1.97855
1.85975
2.07589
1.93291
2.00746
1.92621
1.73196
-4.54232
-4.10192
6.27755
23.4386
4.23439
-6.53809
5.43123
16.5865
-8.20887
3.83592
-17.969
-1.71594
-1.62866
-15.0018
16.9784
16.8468
16.9342
2.69399
2.68016
3.20906
3.21691
2.72065
1.15338
1.01473
0.980562
16.1154
5.48617
5.01812
-9.58864
-8.81528
2.13599
-10.5774
-11.3689
-10.7211
-2.54739
-3.21266
-2.45299
22.8412
-17.8185
23.1035
3.44924
2.80283
3.64771
1.73392
21.8376
18.6663
18.8771
3.69922
18.4605
17.928
17.4581
17.7539
0.636587
1.21302
14.9896
14.817
-10.0076
-10.1558
-0.25939
-2.75083
-7.9145
-6.94627
23.4075
4.41742
4.03515
4.48983
1.2598
-12.2509
-12.5155
-11.7615
-5.98181
-9.26123
-9.16744
1.3459
0.911982
5.87017
3.77568
3.93615
3.64088
3.62517
3.67457
3.56738
21.8497
3.314
2.73271
3.07187
2.76212
3.08948
23.6104
20.0642
-1.04327
-1.45584
3.53114
3.59079
3.66137
3.47912
3.15521
2.58957
17.0154
17.2343
3.62247
20.7796
5.32773
4.78207
-9.69331
-10.3137
-10.9301
21.4118
4.29265
3.93105
23.8351
22.3111
22.2159
9.15603
8.90667
9.11061
-3.24914
-9.91191
-8.89772
4.19921
3.8619
17.4904
17.6596
17.9549
1.1041
0.570089
17.1891
23.382
5.89754
-9.33552
-9.23048
-8.20063
21.8622
21.9329
4.29568
4.36541
3.88493
3.42434
3.24549
3.3952
15.9743
23.8739
0.801344
20.2311
5.3838
5.38566
-15.8187
-16.6219
19.119
18.9351
1.47129
0.971782
0.648873
0.041701
-0.029744
0.804514
-8.22876
-7.68419
-1.90983
22.9478
24.1728
-11.9052
18.1384
17.5943
-19.0696
-19.0047
16.7257
-10.9638
-11.7969
19.6376
2.21899
2.55469
14.3368
14.6599
-15.2723
-11.4046
21.5181
7.20036
7.35869
-1.22378
-1.41917
-8.74185
-8.49481
24.1813
24.1709
-10.5672
4.69158
4.33945
24.3731
4.62074
5.10464
13.7275
-13.2165
-13.841
-12.9574
5.32752
3.42026
3.7793
3.50176
3.60718
3.81336
-10.7517
22.9913
3.23605
3.56923
3.62945
3.53348
1.82719
1.39992
3.34223
3.35349
0.127409
0.0482847
8.14299
3.3822
3.55454
21.1436
21.5132
-9.80771
-10.3619
-10.6656
-10.4321
17.9996
-10.9984
3.23175
3.46352
-1.69978
17.731
17.6657
21.4172
21.8109
21.4176
21.3607
3.06764
13.7034
13.3412
13.1953
-3.90045
-3.38101
-2.80109
-2.39239
17.1169
16.1657
17.5761
18.146
-6.10454
-6.67347
-6.92427
23.6732
23.8985
19.6348
19.5064
16.5718
16.8685
16.6559
16.6275
-15.6921
-11.818
0.733841
0.574558
-5.42944
-9.20899
4.10217
4.43176
-9.6247
-9.44219
-9.14496
-8.17376
4.76931
4.58768
1.22869
1.18194
2.36616
2.51067
17.7411
18.002
17.5133
17.1286
3.73248
3.66379
3.482
3.70313
-1.62078
21.4071
2.52587
2.80759
3.07034
2.87804
6.49442
-9.94974
-9.32583
-9.92588
-5.26362
-6.47271
-6.16154
-6.36382
16.83
16.3874
16.7595
-5.37163
4.86772
-9.04927
-7.50561
-9.1413
-9.10414
-8.49637
17.8425
17.7091
17.9385
-7.57307
-11.1141
-11.0768
-10.9291
-10.9097
-9.29289
-8.83378
-9.36596
17.7876
17.4625
17.2719
-2.42511
-1.91935
-0.635456
-1.29267
4.61435
4.53862
4.78229
2.3139
2.62125
2.08522
3.91901
4.27657
4.04138
3.75938
3.7427
-10.6499
-10.416
-10.5573
-10.6562
-10.8854
-9.16719
-8.35356
18.0341
17.6613
17.4841
-3.72123
-4.28588
-5.07299
19.104
-4.5048
-4.71854
-7.49576
-8.02908
19.9644
19.3296
15.8592
16.0765
18.9864
18.6611
2.1089
1.9139
-14.9484
-8.16574
-7.25756
-7.8529
-12.7236
-13.2937
-14.8314
-5.32612
-5.91803
-6.06492
-6.50034
-8.0431
3.16237
2.65232
3.31229
3.34481
-22.1615
-21.8069
-11.1745
-11.2995
-10.0521
-10.9669
-7.62366
0.967062
3.92699
-21.4713
15.4177
15.7162
3.66884
3.63215
3.50909
20.1068
20.0874
19.952
-8.35458
-7.36211
2.56119
2.24111
2.51785
3.6083
3.40659
3.38842
3.46307
2.27795
2.67039
2.63995
-6.54
-6.73294
17.4222
17.6322
17.8513
3.11098
2.32262
3.23315
3.41603
3.7093
3.00014
-8.1929
-7.99942
-8.27055
-7.85892
-11.3084
17.9265
17.9245
-0.350312
-1.0422
-1.38835
-0.820768
19.4514
19.2081
18.9367
19.3146
5.82954
6.01819
5.97533
-2.56756
-1.826
-1.09321
-1.13648
-0.919689
-1.20729
-1.92725
16.3705
17.4485
16.7619
17.0818
20.3299
-6.20637
-6.56054
-5.89965
15.7689
15.4074
15.1329
17.6619
18.0725
-7.8675
-8.76908
-8.16939
-8.01499
-5.26206
-4.76891
2.85684
2.44787
2.76247
2.65808
3.46081
3.86512
3.1582
5.08777
4.66702
2.66496
3.0243
16.9898
17.2163
17.0025
1.3101
1.16292
2.27826
2.34643
2.34766
2.4783
16.0868
16.3411
16.3972
-7.46871
-7.80883
-6.58817
-7.72241
3.99224
4.01998
3.82722
-7.15387
-6.86285
-7.6842
18.8084
18.8306
17.629
17.6022
17.3868
18.2768
18.0301
17.938
17.8737
18.897
18.9317
18.7726
3.3031
3.52561
3.32179
3.04651
-13.1921
18.1499
17.6322
18.0531
17.8412
-11.684
-11.5416
-11.5169
-11.32
-5.86536
-5.34708
-6.21431
-6.65211
18.2652
18.2434
17.4982
23.0084
23.0134
23.0706
0.607732
2.59614
2.2081
2.43889
14.5556
5.2127
4.93869
4.15418
-8.70459
-12.1622
-1.53843
-9.81826
-9.96174
-9.75173
-9.2297
-11.9142
-11.7818
3.34476
3.33908
2.97205
18.1427
17.9058
17.7363
3.74745
3.6214
3.61321
4.0652
21.7619
21.8484
21.5285
21.8105
-5.41176
-5.22093
-4.9738
4.05983
3.88064
4.05425
5.2902
4.46652
5.04715
4.9888
-7.04385
-7.1752
-6.66416
-11.8165
-11.8894
-11.8037
5.32808
16.5761
16.0227
15.7198
16.0448
-4.63021
-4.93871
2.67678
2.53615
3.68808
-0.170453
-11.1119
-10.8508
-10.449
1.17623
2.04926
0.870895
-8.95628
-8.6004
-8.26995
-7.93102
-9.08277
-9.3181
-12.8679
-12.5976
-11.9189
0.915376
0.691009
-0.149865
2.57697
2.50786
2.49447
-8.1815
-7.90853
-8.00069
-7.77933
-25.1464
-24.3
-3.38823
-10.5491
19.3423
21.3802
3.83665
3.45748
3.8899
21.3539
-24.1411
-1.81742
-1.30921
-1.83003
8.27924
8.211
-2.16354
22.8096
1.92282
1.78571
2.14038
1.94299
2.02824
1.68076
1.71292
-6.02639
-7.08165
-6.31922
2.10368
2.69585
3.22229
3.02376
2.77018
3.03131
-3.41139
-3.70872
-3.26958
3.73791
3.56078
3.45393
3.27575
-12.8957
-12.3074
-9.84248
-9.3585
-2.182
-0.0550408
-0.4852
0.0094511
-0.047658
-5.99994
-5.65743
-9.65204
-9.28454
-10.0282
-9.97612
-1.96724
-11.8869
-11.9372
4.27381
3.66048
3.83106
4.01717
3.81258
18.8071
19.193
19.146
-4.93638
-4.71232
-10.4991
-10.9194
-10.7161
-3.28764
-2.81862
-2.29039
-1.49862
2.78988
2.37608
-12.1619
-13.8414
-12.2526
3.705
3.67313
3.87907
18.6641
18.1456
17.7083
18.2271
17.7808
17.9067
1.68809
-4.92903
-5.71691
-5.82081
-5.84249
-4.15887
-4.47432
18.2903
18.6506
-3.63804
-2.69504
-2.23487
-2.23221
4.64716
3.97308
4.42429
4.57631
-2.42072
6.11594
6.02164
-8.66387
-9.10144
-9.26674
-9.3318
-9.4926
-9.77469
1.22588
3.07769
3.4102
3.22637
-0.951828
-1.60719
-1.50742
-1.51712
22.216
18.7755
19.3346
-15.1125
-16.3037
-9.50114
-8.77677
-9.36883
-8.53432
-19.5905
-4.12351
4.67007
4.95314
-16.9872
3.42541
3.25093
-8.60701
4.32306
4.4228
3.66131
3.74717
20.5713
20.8466
1.94488
-10.2718
-9.5274
-10.1658
4.2602
-5.77367
-6.47572
-6.21991
-5.34373
-5.99165
-4.50989
-5.11157
2.53274
2.29705
19.1683
-9.8638
-9.54118
-9.09559
-10.0134
17.6607
17.2146
18.2398
18.4211
3.38914
3.14576
2.89107
3.35631
3.27435
20.666
-4.66756
-4.42726
-4.47464
-3.55046
-6.98085
-7.76959
-7.81038
-7.5442
1.57557
1.50751
15.4798
15.2074
15.66
-5.22936
-5.18063
-11.4321
-3.58843
-3.94687
-2.88252
-2.5242
-0.430019
-1.00596
21.7408
18.948
-5.88499
-5.45097
-5.91892
-6.20796
18.0998
18.2672
18.0239
22.0895
3.47593
3.67465
3.31767
1.26055
1.20475
3.3576
-5.50339
-1.64257
-0.33363
-0.866635
4.17003
3.85147
-4.0648
-3.23569
-4.38867
-13.409
-11.0699
-10.9726
-10.9917
-0.933178
0.153031
-0.84106
3.13798
2.98598
3.29097
2.74659
2.96706
20.6118
20.9973
20.9961
21.2751
23.4876
-3.34863
-2.63164
-3.35286
2.25755
2.59407
2.88342
22.3792
23.5887
4.90452
-10.7022
-10.7509
0.913869
1.03996
-10.0717
-10.1724
-9.88009
3.56426
3.55115
3.70359
3.60918
2.4338
-0.972587
-0.657834
0.190155
0.261028
2.38287
2.05758
15.8376
16.1088
3.98182
4.0518
4.11023
3.92818
-13.1673
-12.1719
-13.1929
-10.9728
-10.8067
-10.9512
-10.2488
-7.8211
-7.11798
-8.26609
-8.53304
-14.8572
-11.3126
-11.2544
-11.1256
20.7994
20.9599
21.0602
20.4046
20.7235
-8.57148
-8.64258
-8.0858
4.67454
4.51442
4.71595
1.71274
1.75943
-2.13981
-2.83346
-2.57664
-3.3779
1.19879
0.606847
2.20276
1.83808
-0.408738
-1.10842
-0.430679
-0.319734
3.33445
3.42248
3.59069
3.12879
-4.02798
-4.14031
-4.0719
-20.3318
17.5744
17.816
-6.81669
-7.56477
-7.40632
-7.0235
-8.87225
1.85059
1.28984
2.12403
1.7632
6.39808
5.00589
5.80544
5.35357
4.91944
-10.631
-10.6493
-10.1096
-18.9522
20.4713
20.5079
4.04928
4.04207
3.58717
5.41646
5.63213
5.35528
24.772
-11.8704
-12.4956
-12.5707
1.954
-11.4303
-11.6745
-11.5749
19.4797
19.3752
19.2262
-11.7976
-1.73916
-1.1173
-0.418952
0.0561395
23.2717
-10.9664
-10.6975
-9.71241
-11.4694
3.62912
3.45267
3.52357
18.009
18.0594
-10.1358
-10.1424
21.7701
0.872494
0.0273003
1.1314
1.71438
-8.93537
-7.88267
-7.54489
18.6595
1.46859
1.48574
3.157
3.2783
2.86886
3.107
19.8473
20.3318
20.1339
20.5974
18.8053
17.4825
-7.64722
-2.46838
-1.79562
-2.0004
-2.10022
18.1359
18.601
17.8784
17.9318
-5.54876
-5.76145
-8.46128
-7.85891
-8.31419
-8.43097
8.70282
-6.81454
-7.20012
-7.07084
-7.52014
2.2956
3.07462
3.22377
-8.28158
-7.8628
16.8596
16.6688
3.55148
18.0849
18.2118
0.658045
5.03287
2.42643
2.45794
2.73837
2.54901
-5.80855
0.237435
-16.2531
24.052
24.0595
20.9046
-14.7329
24.1575
24.0533
24.0256
-18.6014
-0.542893
-13.3079
-0.0486319
23.9495
22.8997
23.518
23.7043
-1.77921
0.00978121
0.035551
0.10325
24.2627
-4.63302
-3.94637
6.31436
7.20606
-4.09025
-4.58163
-1.13695
-0.17587
21.1541
24.2728
24.312
-0.530917
23.0048
23.1296
23.555
23.4206
20.9975
6.87318
1.97335
-14.7131
19.6644
21.5344
24.1773
0.451792
24.0893
24.0727
24.0635
-2.22374
23.951
-4.20776
-4.63834
23.7363
-4.17118
23.8499
-12.1196
-12.5975
22.1833
20.916
22.2099
1.17848
-2.9312
22.0896
1.05529
0.833161
-14.8716
21.5125
21.9514
0.210975
-0.548605
0.655884
0.886111
-17.4704
-17.9563
7.42177
-24.4483
24.5009
24.6333
0.684947
0.467403
24.1961
23.0649
-17.6579
22.319
23.8521
22.5053
9.90713
11.5011
10.7877
-6.94219
22.5528
4.91262
24.4268
24.7595
22.2551
8.52772
7.85654
20.9681
24.4315
23.6025
23.6661
0.959408
-8.2212
5.95462
6.88989
6.26336
-3.62135
21.1596
-1.55261
24.5588
24.4925
24.5772
7.05229
21.1486
22.2148
21.2859
19.9103
19.8039
19.5835
22.2554
23.3348
23.2828
22.9001
23.2902
23.0881
20.0789
24.1739
24.1723
20.0063
19.0536
21.739
23.1345
23.5469
23.5807
23.5153
17.6956
17.7482
22.7808
22.9512
23.011
24.5982
-25.5365
23.7249
21.8044
24.716
24.7531
23.2389
24.0052
23.8572
24.322
24.2794
22.2411
23.5425
1.58346
-19.8335
-10.4208
22.9378
-26.1941
-25.1182
-12.1343
22.2255
3.0982
22.3154
-0.337941
22.3653
4.01129
23.6431
24.3531
1.48261
24.5752
0.330201
0.00879435
2.00396
2.29116
20.9985
23.9864
-2.70228
0.964165
1.23155
22.5625
-11.6716
-11.6585
2.78477
23.9648
21.8959
24.6353
24.4736
24.441
24.4327
24.1184
23.6625
3.59527
22.4705
23.6625
23.6058
21.9284
21.8232
22.7893
22.799
-2.70795
11.1992
24.3016
24.6844
1.67304
1.70457
22.5828
22.5229
21.1554
21.1894
20.0027
1.56896
-14.5934
21.0467
21.6519
21.4569
-0.891928
-0.819984
-0.733614
-0.156916
23.6676
23.513
2.04434
-11.9693
20.7011
19.468
19.0301
23.4228
-1.73751
0.273604
21.0519
21.1506
22.5156
-2.92744
-2.74394
19.179
19.2476
23.1792
-5.55086
-6.90038
18.6935
18.8908
21.0167
21.0984
2.21243
1.90148
-0.324434
-3.51701
-4.03973
0.488087
0.428039
21.9787
-0.815855
22.9122
19.1534
-2.80174
22.581
19.8955
20.1601
-20.8046
-0.488428
21.7379
21.8769
21.1027
22.6994
22.7372
7.28189
23.2398
22.4252
23.4796
-0.926083
2.44766
2.33458
24.0637
4.3708
23.4154
-19.0637
-2.28481
-1.82214
-0.279757
22.2419
22.3091
21.1155
-22.0187
21.1859
19.8007
22.1283
-3.42448
-3.36334
23.015
21.889
21.9601
22.0144
22.069
-24.0376
24.3536
-5.24315
21.8908
19.7118
19.6082
19.705
22.8748
22.6967
-1.15805
7.42937
6.85265
0.107575
0.191885
-16.6074
22.2288
-16.7309
20.1004
20.0778
8.05259
8.8234
7.88061
-3.31678
-3.07808
-16.5796
-0.128183
20.2739
1.37504
1.49123
1.62063
20.1633
22.3737
-1.73901
-2.27663
0.0617498
-2.0659
1.02354
0.614313
1.827
-3.90726
20.6671
-8.22138
-6.64557
1.54193
1.19713
2.43914
23.268
23.1093
-0.569314
-12.4621
22.1632
19.3698
19.6674
18.6059
18.3289
18.2698
-9.95226
23.539
22.6575
22.6801
20.0911
21.5673
1.87485
1.78415
2.24643
1.94103
23.5776
23.5507
-2.75668
21.7247
21.6899
20.0426
19.9893
19.5635
21.0327
20.9046
20.6417
1.07435
1.1941
1.36093
4.80404
2.01689
0.257751
3.55242
-6.15234
-5.94411
23.8477
9.4444
-4.89812
-3.89811
-4.29363
-10.2869
-9.88843
3.75602
19.6818
19.1967
19.212
24.5836
0.0111004
22.3646
-9.67506
-9.92946
-9.99707
-9.74629
24.2747
3.16014
2.89273
24.0944
19.2472
-5.04052
0.726199
0.830727
-0.545025
-0.461407
24.7016
19.343
-6.14225
-6.54309
-6.18735
-7.02074
24.441
-2.01328
-2.68912
-2.05831
0.780891
0.749302
-2.60947
20.3673
20.2382
-0.431666
20.91
-7.95662
-7.73872
-8.15901
0.433647
23.1167
-0.863827
-0.449502
23.4882
24.0796
1.97365
1.6164
7.94269
9.22038
18.5395
18.5096
23.3527
-7.71331
19.548
19.5458
19.2137
19.3603
0.727616
-1.21712
-9.28941
-9.74437
-10.2714
23.9005
23.9003
-5.43231
-5.63243
-5.55742
-9.46566
-7.63416
-11.6176
-12.0115
18.661
-4.81813
-4.55963
24.1266
17.9515
18.5093
18.4318
17.9914
18.5521
18.6715
-1.52862
-2.50096
23.2719
-3.77841
-4.43714
-4.74617
1.82118
1.2706
23.0785
0.763343
21.9398
22.7306
-3.49052
-3.51914
-2.91116
-7.96898
-7.4543
15.0025
14.3394
20.3392
20.0458
18.0139
18.631
18.5258
19.0226
19.4768
19.2882
19.0636
20.2721
18.3437
22.2161
23.4319
10.9843
-11.7801
-11.9052
-11.5307
23.6407
22.324
3.70731
3.44569
2.25776
2.36404
2.1449
21.6321
-10.1201
-2.9129
24.3097
0.0185961
-4.59936
18.2463
17.968
17.9439
-0.679394
22.2649
24.7505
-6.45739
-3.07593
-0.603409
19.419
19.5578
0.92541
-12.8666
-13.3329
23.0007
-5.02804
-9.89221
23.5083
-0.953941
-1.56058
3.62446
3.70391
-0.65296
21.3884
-16.2983
19.6716
22.6093
20.4849
20.0951
0.641173
0.30375
20.2282
20.2526
19.8957
23.3089
23.2853
0.206951
-0.509763
0.985822
1.01539
3.83756
3.58405
24.4536
18.3865
18.5427
23.171
23.1406
1.96904
1.83758
-4.74783
-2.73572
-2.66983
-0.283594
-0.613248
0.735215
0.551565
12.6774
0.867375
0.871286
-9.57274
-9.40442
18.5838
18.6399
-6.23646
-5.79074
0.80833
-17.5058
-16.8536
18.8742
18.6788
18.5603
18.4903
-5.67999
-5.95631
2.31958
2.19305
2.04313
1.39745
2.01257
2.22378
21.5964
21.6407
1.58746
1.76304
1.63205
22.4395
21.4708
6.60371
7.57023
21.2596
18.2898
18.2439
18.0947
0.216917
-6.73097
-5.62413
24.041
20.1815
20.0512
-9.56897
0.901071
22.2085
-1.5366
-1.42196
-3.66881
21.7536
21.9368
4.366
4.47817
4.85541
4.86153
3.47467
3.40708
-2.89149
-2.85083
-0.207785
-0.421396
0.712592
0.675581
0.704754
4.8806
-8.15419
-1.94667
16.9703
17.2085
15.7259
16.7
19.4866
19.4725
19.4528
3.52728
3.43096
19.7875
-3.89969
-13.463
21.2929
1.23698
1.32572
5.88051
0.73179
-0.473891
0.237037
0.452116
18.125
18.3632
-0.746498
-10.451
-9.87029
18.8316
2.77706
2.14469
-6.01533
0.661227
0.714559
18.6867
-13.0576
0.494517
-1.50797
-0.406988
-0.143892
19.2204
19.0935
19.5975
19.0307
18.9977
19.4613
4.59427
23.8116
18.0184
18.208
18.1228
-6.47922
22.1032
-7.78158
-8.252
-10.3638
1.79798
1.6551
1.94588
3.38747
-5.54612
-6.37748
2.68235
3.18472
2.94735
1.67119
1.39181
1.34818
0.0328195
-0.109701
18.281
18.1819
22.3337
22.4554
22.3507
0.956871
0.86349
1.39524
1.48872
-12.0652
-0.626154
5.43521
6.41756
-5.50095
-5.5989
-8.71754
-9.14889
3.27023
3.22115
3.13458
8.93576
8.24355
9.60497
-0.341978
-0.358808
-0.155929
1.6533
1.94395
1.65846
17.3728
18.3427
2.57834
2.44586
2.18621
-9.97566
-9.54995
-9.95444
1.6219
1.533
-10.5562
-10.8173
-4.96323
-6.83598
-6.69426
18.9975
18.8676
-17.6486
-17.0161
18.9297
18.5825
18.5417
3.20199
-2.85196
-0.30959
17.992
24.0061
0.435644
23.7323
2.87504
2.95889
-9.20794
22.8152
2.8157
1.43815
1.31138
3.11518
3.04707
18.288
18.3549
0.715966
5.55636
5.40112
-4.77113
4.34234
4.08905
3.82841
0.279322
-0.100049
6.11589
3.71544
3.73757
5.20688
5.53768
1.10735
1.41247
19.845
19.8196
2.94881
3.22067
-22.2381
4.03035
4.21899
-4.29015
-5.4341
3.56811
3.5615
5.45152
5.76121
4.37229
4.24532
-2.30865
-2.48566
-2.68312
19.7663
19.8823
20.0224
18.5747
18.7563
21.6743
-1.52376
-1.41818
8.15916
-5.63755
-5.69397
1.39375
1.16407
-5.27259
-4.18806
-5.37268
-7.63344
-8.02454
1.5594
1.70806
-0.374351
-0.128115
17.9402
17.1603
-10.0799
-9.79312
-7.70443
-8.0094
-8.19594
-7.66967
-7.16579
-8.6787
21.3537
-4.7944
-4.42998
-4.64109
19.736
19.753
20.1825
17.3674
16.9261
-0.710398
20.1133
20.0666
17.9501
17.8826
0.998822
1.17765
1.26832
3.5275
3.06556
3.02553
17.8668
18.0051
21.7073
21.5295
19.5143
19.0927
19.1232
-2.84193
-3.43093
-6.17026
-13.8185
-13.5277
20.428
20.3952
20.7077
24.3128
4.03621
4.49248
4.9877
-0.26007
-0.214655
3.68906
17.9466
18.5473
18.1032
18.644
17.8032
16.977
17.6692
18.2671
1.34363
1.31848
-5.25911
-4.62952
-5.18463
-3.28184
-3.00696
-20.2972
-2.25684
-2.48255
-8.56013
-1.85381
20.5701
20.5868
-3.87877
-3.50289
-3.50941
1.38621
1.32111
1.14124
1.16181
0.629292
20.6311
2.16333
2.59793
-0.189391
-0.0675497
-0.183682
-14.8284
-14.2864
-12.649
23.8348
23.711
-15.4279
-14.879
0.60786
1.24581
21.0453
21.14
20.555
21.0776
-0.747383
-0.71433
-3.5889
-4.01915
-0.106987
-0.322709
-0.62354
17.3454
17.3699
15.9942
0.837259
0.766255
0.798987
-2.90087
-4.29299
-4.18046
-4.97221
1.01649
1.84571
2.52753
2.04494
0.96568
0.872795
0.799741
4.17057
-0.898502
-0.649374
20.2213
8.77415
0.750634
20.0508
19.5726
-14.3777
21.6159
1.07221
-11.5791
-10.7356
-8.86219
-11.9259
12.0484
8.05942
-1.56639
6.6257
-4.12752
-1.64888
10.495
5.50353
-17.0032
9.08752
4.64198
-9.00405
6.71081
13.4221
12.7352
-7.81112
7.62017
5.3305
10.6538
-8.79331
-15.592
11.3553
-12.6384
12.4419
6.67941
2.90588
-6.92793
-13.023
11.9231
13.8377
7.06597
7.34399
7.3039
16.1743
10.2147
-0.707998
-1.61322
-1.78632
-20.9678
11.3062
12.7168
12.2419
2.14624
3.0288
2.66465
3.54397
5.33869
10.7342
-14.7062
-14.8693
-7.28532
7.48796
-11.4258
1.76652
11.9154
-1.78076
-6.7335
11.9029
2.26286
-2.32873
-7.66306
12.2031
13.4398
-28.4239
11.7994
-6.60071
0.123845
16.2403
7.31241
-10.3394
21.2693
21.6802
-11.0748
-12.1519
7.10246
8.37306
8.37941
-6.73749
-0.19624
5.48992
2.53531
13.611
10.2007
13.874
-4.49001
-4.57997
11.1209
10.6717
11.367
-19.5628
14.3532
14.1859
-4.15435
-4.45248
3.03747
5.77604
7.68733
8.27032
-13.2632
-14.4561
10.3426
11.2777
14.1357
14.4685
0.0801216
1.1157
-15.6908
-16.6811
-0.141393
0.761495
-13.8775
-8.88302
-9.99288
8.82142
8.38385
-12.0701
10.0703
9.07263
4.62549
5.05916
6.00784
6.4888
-13.48
11.9137
8.84749
-1.10248
1.97543
-12.0693
8.3524
-15.2751
-1.63275
16.2396
-1.87201
2.08915
11.5352
6.79277
-0.344329
0.258051
-11.6615
-2.50747
14.5086
2.26769
1.33788
-1.32639
6.00253
-0.306006
-1.24376
8.51174
9.50592
9.20254
7.14715
17.547
-3.32979
14.8248
12.2795
12.8167
1.91928
1.13072
16.9493
17.1171
5.42854
-20.2923
-0.309763
0.532902
-10.2029
-10.2969
10.556
10.578
-8.51805
-9.04169
-9.96872
14.9089
15.1858
9.29867
-26.6854
9.83537
11.3126
11.5076
-16.4006
-3.68758
6.94782
-17.3421
6.14334
-21.5137
-4.1376
-3.24386
3.36619
2.97826
-14.0574
-1.13389
6.23513
2.7991
2.10331
1.22775
1.95856
10.4359
13.7477
14.0198
17.1207
-2.02175
-2.83018
-12.5293
10.7693
5.66381
-15.0177
7.84596
7.81518
8.29309
1.29853
1.89633
11.1904
6.21616
6.39861
2.466
2.69704
11.0191
10.0741
3.12725
3.91798
-4.64132
12.1811
11.6323
-14.2392
2.15599
2.27787
1.92926
2.55523
2.7417
2.62992
-12.1586
-2.48853
1.38543
2.51096
3.37757
5.92972
2.80287
2.44257
13.4978
13.159
3.45332
-10.2885
12.9698
-14.2602
-0.86281
-0.231629
13.1687
12.911
10.2212
9.6715
-12.804
6.50238
-4.20624
-4.14636
7.89602
8.82489
6.07832
-0.233105
0.0381882
0.603643
14.6594
15.5865
9.36313
9.75428
10.8403
11.3831
11.1935
11.4226
5.22021
4.48533
-13.1667
-13.3918
-0.898819
-0.63898
-1.33306
-1.54745
21.2703
21.2398
21.4932
11.7663
11.4147
11.3999
5.87678
5.65332
12.1149
12.1741
12.2225
3.87172
2.85769
15.5816
14.5639
11.9503
11.8039
12.2145
12.5619
-11.1751
16.6119
16.751
-0.458015
-1.61838
9.87942
9.58479
4.31718
4.97891
2.40911
3.1573
10.1655
6.77207
1.01687
-6.74342
-7.1739
-12.0705
1.97967
1.61485
2.3205
3.13871
9.16097
-9.24734
-10.0431
-9.0831
-2.05425
-0.0248017
0.937199
16.3258
17.1367
3.32532
2.67551
12.528
12.7999
-3.067
-3.25651
14.8599
15.0723
2.90727
3.67145
10.6952
10.9184
11.2402
10.9115
9.27664
9.53759
-3.65286
-2.60467
11.7683
11.7059
-15.7404
-14.5907
22.1013
9.29131
10.3711
10.6078
-8.40887
-9.07021
-1.7514
-1.57409
-4.34402
5.69036
5.69931
2.89318
2.32282
11.7788
11.9915
4.84177
-24.993
-13.629
6.44674
9.01162
12.8139
10.9487
-0.956961
4.52616
3.92824
9.8328
10.6422
14.9985
15.6017
15.0248
11.5936
11.0665
-11.9525
-3.94171
11.2865
11.4992
11.3022
11.803
4.04993
3.81219
3.50454
3.61638
1.95372
4.17828
3.35029
6.80126
6.01266
6.25457
6.23737
-11.4247
-11.4186
-11.4573
-6.96165
13.1043
13.2428
0.943298