/*--------------------------------*- C++ -*----------------------------------*\
  =========                 |
  \\      /  F ield         | OpenFOAM: The Open Source CFD Toolbox
   \\    /   O peration     | Website:  https://openfoam.org
    \\  /    A nd           | Version:  6
     \\/     M anipulation  |
\*---------------------------------------------------------------------------*/
FoamFile
{
    version     2.0;
    format      ascii;
    class       surfaceScalarField;
    location    "1000";
    object      phi;
}
// * * * * * * * * * * * * * * * * * * * * * * * * * * * * * * * * * * * * * //

dimensions      [0 3 -1 0 0 0 0];

internalField   nonuniform List<scalar> 
44596
(
1.53819
-2.16503
0.626839
1.53819
1.44644
-1.44644
1.9376
-0.491156
-0.0939431
-2.14883
2.10157
-0.563388
1.31146
-1.31146
0.215912
1.81679
-2.21225
0.765812
-0.267228
2.30057
-0.800416
-1.20722
0.800416
1.30116
-0.560899
-1.3448
0.560899
0.750565
-0.594239
-0.825731
0.825731
-1.17061
1.38652
1.19422
0.63707
-1.83129
0.0431872
1.50308
-1.54626
1.42597
-1.42597
-0.1472
-1.67628
1.82348
1.54993
-0.0872483
-1.46269
1.12401
-1.12401
-1.10544
1.10544
1.12475
-1.12475
0.23886
1.24588
-1.48474
1.37276
-1.37276
1.46956
0.0803715
-1.317
1.317
0.266878
1.3497
-1.61657
-1.58233
1.58233
0.601091
0.582101
-1.18319
1.94143
-0.515457
-1.2544
-0.218331
1.47273
-1.43029
1.43029
0.706557
1.29326
-0.79335
1.49991
1.47158
-1.7669
0.295313
-1.62239
1.62239
1.05629
-0.817432
1.24667
-1.41684
0.17017
0.962601
-0.962601
1.20242
-1.34962
-2.31223
0.832027
-0.832026
1.00945
-1.0967
1.84148
-1.92872
-1.58879
-0.614496
-0.79084
-0.797951
-0.897833
0.897833
-1.03977
1.08295
1.98079
0.0634404
1.4873
-1.55074
-1.53502
0.135096
1.39993
-1.55074
-0.458324
0.00772539
-1.43801
0.113287
0.211566
0.259672
-1.81041
-1.50722
1.81041
0.530013
-1.20873
1.99957
-1.43801
-0.943254
-0.473586
-1.56039
1.56038
0.896429
-0.390223
-0.506206
-0.814145
0.415509
0.398635
0.70309
-0.113161
-0.589928
-0.0014075
-0.0916767
0.0930843
-0.0593977
-0.0637805
0.123178
0.0612465
1.44183
0.853807
-0.792561
-0.00277883
-1.45991
-1.20688
1.20411
-0.0390736
-0.00360142
0.0426751
0.124495
1.06972
-0.793218
0.555055
0.238163
-1.66251
-0.0137751
-0.349405
0.929254
-0.579849
0.416502
0.594883
-1.01138
0.048308
-0.882925
0.834617
0.00910824
0.0667205
-0.0758286
-0.0355267
0.00968164
0.025845
0.0958811
-1.02521
0.929333
0.805258
0.636571
0.710376
-0.608835
-0.101541
1.24551
-0.142276
-1.10323
-0.163015
-1.09453
1.25755
1.53229
-1.6953
-0.0215618
-0.0139649
0.00511202
-0.0441856
-0.935195
-0.727315
-0.0372309
-0.897964
-1.07672
-0.00683669
0.0327679
-0.0259312
-1.3107
-0.149211
-0.441908
-0.868788
0.0106163
-0.803834
-0.803528
-0.679339
-0.608434
-0.326375
0.93481
-1.19968
0.981353
0.000761542
-0.000761544
-1.10213
1.25381
-0.151678
0.251409
0.904796
-1.15621
0.820417
0.0688785
-0.889297
0.0165346
0.91272
0.912964
0.898945
-0.480805
0.897307
-0.887613
-0.319271
-1.13129
-0.307459
1.43875
-1.19776
0.259897
0.937861
0.536925
-0.853327
0.316402
1.05606
0.943838
-0.744518
0.754922
-0.010404
-0.883027
1.0532
0.848543
-0.211473
0.253587
-1.18845
0.934868
-0.980215
-1.02999
-0.2836
0.98669
-0.898369
-1.41386
0.9356
0.30842
-1.24402
-0.00947862
-1.41649
1.14077
-0.205902
1.22261
0.758178
1.07594
0.923999
-0.632444
-1.29628
1.07435
0.171529
-1.10651
-0.876168
-1.85257
0.746053
-1.63694
-0.194344
1.15785
-0.735356
-0.422499
-0.102801
0.803169
-0.700368
-0.953492
0.0847032
0.887872
0.116637
-1.05989
-1.32138
0.420321
-0.913566
0.493245
0.823698
-0.612132
-1.5257
-0.806104
0.332518
0.351751
0.716275
-0.77659
0.0603153
0.809424
-0.696137
0.0482554
-0.0391471
0.0381726
-0.0450092
-0.535525
1.02877
-1.23435
0.698828
-0.00117257
0.00117248
0.865589
-0.879518
0.0139292
0.130233
0.000738988
-0.000739127
0.000738943
-1.10046
1.10046
0.86176
0.802267
-0.672033
0.758054
-1.25438
0.49633
-0.720269
0.57006
0.150209
-0.00989263
0.39642
0.457388
-0.56617
-0.237358
-1.55267
1.49547
0.0571982
0.207593
-1.09062
1.53229
0.946349
1.38841
-1.46982
0.081412
0.00149848
-0.00149855
0.0007593
-1.00443
0.891266
-0.859857
1.16111
-0.301254
0.817418
1.41851
1.29473
-0.712627
-0.638339
-0.373045
0.656389
2.355
-0.982239
-0.146487
-0.923294
0.231183
-0.64569
0.414507
0.0611587
0.800602
0.285572
-0.8755
1.04396
-0.0626067
-1.18604
0.945914
-0.247085
-0.130806
0.794613
-0.11297
1.23673
-1.35865
1.35894
-0.000290681
-1.04188
-0.504381
-1.53304
-0.767226
0.38398
0.0474686
0.627826
-0.675295
1.20973
-0.153667
-0.148921
1.707
-0.48416
-1.22284
-0.145563
0.758101
-0.40635
-0.6271
-0.226227
-1.40278
1.33932
1.96616
0.00400649
-0.00309903
-0.00090748
0.00146175
-0.00663081
0.00516906
-0.0280473
0.0281631
-0.000115851
0.0409488
-0.0200767
-0.0208721
-0.00466201
-0.004757
0.00941901
-0.00955374
0.00489173
-0.058034
0.0133133
0.0447203
-0.0180167
-0.10493
0.122946
-0.00546531
-0.00511502
0.0105803
-0.0642901
0.0488392
0.015451
-0.112221
0.0731584
0.0390622
0.0563127
-0.00758284
-0.0487309
0.00630387
-0.00541271
-0.000891172
-0.498956
0.32457
0.174384
0.01886
0.00159485
-0.0204549
0.00713888
-0.00524002
-0.00189886
-0.00130486
0.0013049
0.00364884
-0.00911414
0.00734034
-0.00479306
-0.00254726
0.0195942
-0.0423573
0.0227631
-0.00755193
0.00565396
0.00189796
0.0036686
0.00347028
-0.0512906
0.00359927
0.0476914
0.0443293
-0.0468265
0.00249737
0.0105814
0.0144178
-0.0249992
0.0368302
-0.0262487
-0.0548776
0.0106579
0.0442196
-0.038486
0.0562617
-0.0177757
0.00148614
-0.00148614
-0.00602704
-0.00679395
0.012821
-0.010784
-0.0485577
0.0532499
-0.00469465
-0.00832371
-0.0551035
0.0634269
-0.0365278
0.00792788
0.0285999
0.00356529
0.0159643
-0.0195296
-0.00274187
-0.0158396
0.0185815
0.00270702
-0.00270709
0.0137477
-0.0384318
0.0246841
0.00413971
0.00665322
-0.0107929
0.0098865
-0.00199789
-0.00788861
-0.0109828
0.0856103
-0.0746275
0.0651716
-0.0761544
0.0517013
0.0221287
-0.07383
0.0669161
-0.0152148
0.00725405
-0.00290466
-0.00434939
-0.00373574
0.0461865
-0.0424508
0.0614358
0.00918114
0.0096789
0.0188628
0.00602126
-0.0244125
0.0183913
-0.0197721
0.0195243
0.000247838
-0.00784568
-0.0119264
0.0566162
-0.0562928
-0.000323528
-0.0467141
-0.00991377
0.0566277
-0.00716888
0.00324753
0.00392135
0.00918485
-0.00681499
-0.00236989
-0.0100127
0.0332399
-0.0232273
-0.0474217
0.0390972
0.00889075
-0.00946109
0.00396041
-0.0067046
0.00274419
-0.0169303
-0.0379472
-0.00091198
-0.00451579
0.0054278
-0.0216272
0.0137816
0.0118924
0.00334684
-0.0152392
0.00597132
-0.0127653
-0.627925
0.30155
-0.0213879
0.0113752
-0.00268778
-0.0011366
0.00382436
0.0221184
-0.0221941
7.57442e-05
0.00769624
0.0144222
-0.0112366
-0.0101513
0.00365298
-0.0148895
0.00706819
-0.0172195
0.0059321
-0.00771442
0.00178235
-0.00222742
-0.00393251
0.00615993
0.000232085
0.00938359
-0.00961567
0.0478422
-0.0371843
0.00935617
-0.050887
0.0266595
0.0242274
-0.0155666
0.0189976
-0.00343109
-0.00325513
0.0160761
0.0112279
-0.00899829
-0.00222958
0.0447763
-0.0354201
0.0465891
-0.00181275
-0.0463966
0.0109764
0.0576086
-0.675745
0.618136
0.00534405
0.00384081
-0.00319389
-0.00397498
0.0632644
-0.340999
0.277735
0.172012
-0.502038
0.330027
-0.000439508
-0.00585523
0.00629476
-0.00305089
0.0059286
-0.00287772
0.0252548
-0.0175585
-0.0107608
0.0295624
-0.0188015
-0.028171
0.0110798
0.0170912
-0.0183522
0.0286137
-0.0102615
-0.0465232
0.0396935
-0.00621649
-0.00456755
-0.0157805
0.0228486
-0.00610916
0.00757091
-0.00511871
0.00671356
0.0142845
-0.0347796
0.0490179
-0.0142383
-0.0548588
0.0200793
-0.00156812
0.0199534
-0.0183853
0.00623317
-0.019173
0.0129398
-0.0625148
-0.0497058
0.262605
-0.587071
0.324465
0.00189386
0.0520587
-0.0539529
0.0585098
0.0444751
-0.372949
-0.126007
-0.0117855
-0.00866936
0.00758839
0.0112603
-0.0188487
-0.142289
0.202364
-0.0600748
-0.00121895
0.00121896
0.0902885
-0.0331626
-0.0571258
-0.00549586
0.00840712
-0.00291127
-0.0497617
-0.029039
0.0788004
0.00851593
0.00576855
0.0114713
-0.00655813
-0.00491318
0.00670018
0.0128241
0.0129334
0.00265375
0.0101703
0.18535
0.118508
-0.303857
0.0196706
0.00608837
-0.0257589
0.00189123
-0.0136768
0.464223
0.124772
-0.588995
-0.74921
-0.133715
-0.00425696
-0.0215019
0.0365649
-0.00379694
0.0323079
0.0273667
-0.02219
-0.00517667
0.0128216
-0.0387528
-0.00759376
0.00137727
-0.00850041
0.000906659
-0.38675
0.483416
-0.0966666
-0.507487
0.497083
0.0229371
0.0333246
0.0400283
0.0485277
0.0112771
-0.0598045
-0.0502554
0.0399939
-0.00123756
0.0407714
-0.000777459
-0.00799679
0.049152
-0.0411553
-0.0547109
-0.00580043
0.00418451
0.00161592
-0.0770567
0.0272951
-0.00823273
0.0525622
0.0102862
0.00743094
-0.0177172
-0.00871812
-0.013476
-0.00604508
-0.635273
0.496844
0.138429
-0.0365648
0.0258881
0.0106767
0.000265402
-0.0249989
0.24131
0.236805
-0.478115
0.341029
-0.0997187
0.553207
-0.00800761
-0.000990679
0.00160028
0.00966004
-0.00640733
0.0306196
-0.0320271
0.0336705
-0.0285584
-0.0605855
0.328437
-0.155279
-0.173158
0.00463714
0.00500608
-0.0096432
-0.00578591
0.00896447
-0.00317858
-0.00626999
-0.0135714
0.0198413
0.00930587
-0.0155759
-0.0115895
0.00518221
0.00110385
-0.0126934
0.0111842
-0.00600195
0.0291083
0.0223959
-0.0515041
0.0318346
-0.00136199
-0.0304726
-0.011341
-0.0492445
0.0371835
0.000989106
0.0258425
0.008571
-0.00153989
-0.00703111
0.00227837
0.00629263
-0.0239628
-0.01996
0.0439228
0.0132862
0.0182045
-0.0314907
-0.00175544
0.00330528
-0.00635617
-0.00501705
-0.0462735
0.0439681
-0.0243739
0.00542439
-0.00773309
0.0023087
-0.00743883
0.00611605
0.00132277
-0.0260222
0.0120573
-0.00628574
0.0321283
0.0145069
-0.0168124
0.00230549
0.0204782
-0.019079
0.923875
0.210066
0.592201
-0.441249
-0.185851
-0.0100346
-0.00677787
0.00521519
-0.0152498
0.00847183
-0.0152497
-0.0493026
0.0109036
0.0383991
0.000463434
-0.0565142
0.0560509
0.00810816
0.0197255
-0.0278337
-0.022526
-0.0089647
0.0399371
0.00921488
-0.0109521
-0.0358744
0.0289851
0.00768674
-0.00178281
-0.00590394
0.00627671
0.00141003
-0.00729206
0.00550923
0.0198892
-0.0163239
-0.53119
0.591506
-0.512769
0.594539
-0.0817697
-0.00429651
-0.00734343
0.0116399
0.0259241
-0.0853217
0.0322875
-0.0185399
0.00424022
0.0280492
0.0120418
0.00843647
0.0171501
-0.00510832
-0.0145555
0.022992
0.0772514
-0.0677389
-0.00951381
0.0032266
-0.0195212
0.0162946
0.0206672
-0.00784554
0.0238938
0.324914
-0.337849
0.012935
0.00213242
0.00933889
-0.00802253
-0.000477882
-0.00589011
0.008861
0.498685
0.946687
-1.44537
-0.000826951
0.000827013
-0.571205
-0.0679094
0.639114
-0.819547
1.31823
-0.00126527
9.26456e-05
0.467601
-0.409992
-1.06584
1.06584
0.130589
0.945347
-0.885487
0.654224
0.231264
-0.407317
-0.478171
1.24038
-0.260943
-0.979439
0.111038
-0.0559695
-0.0550689
-0.528078
-0.107194
-0.103484
-0.424594
-0.829175
0.925056
0.184832
0.312862
-0.497694
0.370182
0.0433569
0.648481
-0.691838
0.482724
-0.439367
0.0651381
-0.0166116
0.602014
-0.621093
0.53661
0.0654041
0.136238
-0.110314
0.484162
-0.235636
-0.248526
0.196883
0.287279
0.00346288
-0.00373457
0.000271708
-1.01615
-0.144631
0.57754
-0.432909
-0.00059394
0.00059397
0.399734
-0.944673
0.544939
-0.554335
0.601804
-0.308982
0.594555
0.0808319
0.0554061
-0.608641
-0.219248
0.827888
-0.0569071
-0.0214517
0.0783581
0.00822981
-0.156992
0.00908618
0.147906
0.644331
-0.701627
0.0929858
-0.328315
-0.373311
-0.693207
0.364891
-0.919615
0.0457208
-0.99841
0.751325
-0.163794
-0.440399
-0.235345
-0.638008
0.411782
-0.130843
0.352574
-0.894135
0.503912
-0.609478
-0.284658
0.000617733
-0.000617726
0.00102293
-0.00361523
0.0025923
1.03682
-0.148952
-0.0118019
-0.671088
0.68289
0.944207
-0.618295
-0.325914
0.334729
0.219245
-0.70005
0.662439
-0.0880377
-0.574402
0.880772
0.738497
-0.314759
0.714493
0.0294704
0.0739456
0.018842
-0.186129
0.226871
-0.0407416
0.219812
0.424519
-1.15446
1.15446
-0.491509
-0.201698
-0.751969
-0.273245
0.831682
-0.32777
0.0797131
0.273712
0.193889
-0.00358137
0.00212617
0.00145521
0.794543
-0.531938
0.303033
-0.0249561
-0.0887366
-0.00845294
0.00256283
0.81287
-0.957502
-0.456153
2.01654
1.03932
-0.541964
0.360133
0.181831
-0.268252
-0.325397
-0.332598
0.657995
0.0365702
0.247037
-1.50142
0.862171
-0.615135
-0.0831636
-0.254905
0.338069
-0.269293
1.20168
-0.0588857
0.0419554
-0.036757
-0.618027
-0.211148
1.07443
0.249326
-0.579733
0.330407
-0.83098
-0.581654
-0.802659
0.255042
-1.0577
-0.00964457
-0.0129035
0.0540127
0.0632764
-0.942795
0.711758
-0.000407363
0.00102511
1.22261
-0.683015
1.90562
0.225234
1.03815
-0.812916
0.934666
-0.925506
-0.0906459
-0.29055
-0.289183
0.64426
-0.0187524
0.00419688
-0.0164469
-0.0274588
0.0110119
0.110959
-0.647569
0.723051
-0.0754816
0.298457
-0.606127
0.986497
-0.38037
-0.0285873
0.784283
1.04154
-1.18711
0.00616387
-0.630679
0.266627
-0.142193
-0.0035787
0.0265706
0.0430849
0.183786
-0.0672289
1.27148
0.21091
0.848981
0.0447426
-0.0546563
-0.0115501
0.0102943
-0.0990308
-0.0750274
-0.142256
-0.0226133
-0.0617603
0.418949
-0.494431
0.510051
-0.0911011
0.349263
0.160788
0.422949
-1.34163
0.15828
0.0397247
-0.487139
-0.158551
-0.447414
0.577234
0.0409022
-0.44674
0.288189
-0.0985666
-0.348173
-0.353471
1.13959
0.130501
0.827888
-0.697387
0.566945
-0.000581031
-0.000245905
0.00448584
-0.782089
-0.457519
-0.591234
0.0222436
1.39475
0.711734
-0.758086
-0.00775601
0.00932868
-0.00157266
0.00286953
-0.0106255
0.0014931
0.00462155
-0.00611465
-0.00543964
-0.00649818
0.0119378
-0.151067
0.264737
-0.11367
0.00486504
-0.00414078
-0.000724249
0.00745238
-0.00178095
-0.00567142
-0.00619092
0.00381832
0.00237261
-0.0044632
0.00395846
0.000504748
-0.0143361
0.014322
1.41787e-05
0.012
-0.00223913
-0.00976091
0.00312615
0.00887388
-0.0167284
0.0053098
0.0114186
0.00692017
-0.0026742
-0.00424597
0.00273928
0.00418088
-0.0132742
0.0049369
0.00833735
0.00539072
-0.018665
-0.00333009
-0.00456358
0.00789366
-0.0084345
-0.00169923
0.0101337
0.00157431
0.00779209
-0.00936639
0.00465282
0.00205485
-0.00670766
0.00478187
-0.00791652
0.00313464
0.00831092
-0.00958227
0.00127134
0.00148911
0.00682181
-0.00750609
0.00507826
0.00242783
-0.0049525
-0.00255359
0.00238069
-0.00709199
0.0047113
-0.00163362
0.00992593
-0.00829231
-0.00231172
0.00417774
-0.00186603
-0.00324761
0.00197003
0.00127759
-0.00306327
-0.00266293
0.00572624
0.0044157
-0.00747895
-0.0028851
0.0101685
-0.00728337
-0.00748913
0.00231131
0.00517781
-0.00156569
-0.00592344
0.00285646
-0.00694556
0.0040891
0.00180022
0.00430318
-0.0061034
0.00758635
-0.00757664
-9.70798e-06
0.0032058
-0.00273027
-0.000475526
0.00363923
0.00322783
-0.00686706
0.00353913
-0.004812
0.00127288
-0.00645316
0.00312308
0.00721956
0.000517937
-0.00773749
0.00409687
0.0031227
0.00350216
0.00769351
-0.0111957
0.00836257
-0.00990393
0.00154137
0.0102349
-0.00125301
-0.00898192
-0.00882869
0.000172974
0.0086557
-0.00832322
-0.000522439
0.0088457
-0.00449797
0.00687866
0.007988
-0.0114951
0.0035071
-0.0132341
-0.00110208
-0.0071705
-0.00606355
-0.0243685
0.0197639
0.00460457
-0.00781791
-0.333364
0.341183
-0.00887852
0.00440874
0.00446978
-0.00587445
0.0074434
-0.00156895
0.184955
-0.192773
-0.00474072
-0.00539522
0.0101359
-0.00916547
0.00132737
0.0078381
-0.00262827
-0.0065372
0.0192593
-0.00495588
-0.0143034
-0.00797138
0.0272306
0.00795857
-0.00238193
-0.00557664
0.00292398
0.00503459
-0.00713052
0.0111261
-0.00399562
0.00551087
-0.00809682
0.00258595
0.00848453
-0.00574525
-0.00118257
0.011768
-0.0105854
0.00461265
-0.00612384
0.0015112
0.00914496
-0.0118641
0.00271915
0.00838417
-0.00838409
0.00218561
0.0157058
-0.0178915
-0.0100261
0.00556792
0.00445817
-0.00917923
0.00342784
0.00575139
0.00816704
-0.00816703
0.00807318
-0.00807317
8.39444e-05
0.00788392
-0.00796785
0.0297994
-0.0122742
-0.0175257
-0.00397503
-0.00612702
0.0101021
0.00609195
-0.00557696
-0.000514894
-0.0222007
0.00594542
0.0162553
0.0107488
-0.0329495
0.00353968
0.00482267
-0.00836236
0.00473826
0.00156562
-0.00254637
-0.00474569
-0.00350114
0.0153935
-0.00434087
-0.00505841
0.00939927
0.0051726
-0.00314063
-0.00203197
-0.0053548
-0.00193864
0.00729344
-0.0114551
0.00461835
0.00683674
-0.0107787
0.00743537
0.00334329
-0.00447101
0.00705568
-0.00258467
0.000161059
-0.00463207
0.0117249
-0.00939024
-0.00233462
0.00946186
0.00122801
-0.0106899
-0.00867607
-0.00110231
0.00977838
-0.00514858
-0.00352749
-0.00123152
-0.00695272
0.00818424
0.00199999
-0.00686689
0.0048669
-0.000411674
0.00576284
-0.00535118
-0.000926756
0.00568483
-0.00475809
-0.00399969
-0.00419017
0.00818987
0.00905939
-0.00454015
-0.00451926
-0.0115169
-0.00211811
0.013635
0.0125664
-0.00668085
-0.00588551
0.00537503
0.0065163
-0.0118913
-0.0070709
0.007321
-0.000250106
-0.00628369
0.00724245
-0.000958774
-0.00760998
0.0115413
-0.00393137
0.00730474
-0.000391906
-0.00691284
0.0081326
0.000144981
-0.00827758
0.00950453
-0.00269228
-0.00681225
0.00153521
-0.00692412
0.00538891
0.00238837
-0.00757656
0.00518819
0.00605697
-0.00146914
0.00658319
-0.00511405
-0.00779345
0.000725918
0.00706753
-0.0179915
0.0264578
-0.00846628
0.00171661
-0.00535161
0.00363499
0.00307359
0.00448355
-0.00755714
-0.00634658
-0.00395441
0.010301
0.0030002
-0.00934678
0.00610003
-0.000322323
-0.00577771
0.00842064
-0.00232061
0.0196142
0.0101852
0.00475267
0.00402745
-0.00878011
0.0101539
-0.00999367
-0.00016025
0.00993603
-0.00993596
0.00566857
0.00331759
-0.00898616
-0.00552306
-0.00199244
0.0075155
0.0144759
0.024392
-0.0388679
-0.00257834
0.0080228
-0.00544447
0.00123961
0.0063855
-0.00762511
0.0160431
-0.0135755
-0.00246767
-0.00456672
0.00128344
0.00328327
0.00882287
0.00249478
-0.0113177
-0.00294602
0.00654404
-0.00359802
0.00703191
0.00495599
-0.0119879
0.00117698
0.00617232
-0.0073493
-0.0032157
-0.00589074
0.00910643
0.000731514
0.00667199
-0.00740351
-0.0275553
0.0449965
-0.0174412
0.0343746
-0.0619299
-0.00852868
0.00147276
0.00705592
-0.0046802
-0.00384847
-0.00946752
-0.00192577
0.0113933
0.00817213
-0.00459933
-0.00357281
-0.0116254
0.00661594
0.00500947
-0.00719225
0.0107797
-0.00358749
0.00162429
-0.00722161
0.00559732
-0.00323712
-0.00290059
0.00613771
-0.00833777
0.00122185
0.00711592
0.00147872
0.00188999
-0.00336871
-0.00300638
-0.00145682
-0.00227773
-0.00610744
0.00838517
0.00963079
-0.00842323
-0.00120757
0.00922274
-0.0104543
0.0102897
-0.00801135
0.000383798
0.00472058
-0.00510438
0.00614417
-0.00576038
-0.024499
0.0315219
-0.00702284
-0.0187698
-0.00572926
0.00266491
0.00542625
-0.00809116
-0.00899306
0.00913375
-0.000140688
-0.00519477
-0.00379829
0.0102814
-0.00688545
-0.00339592
0.00628005
-0.0112326
0.000975671
-0.00821696
0.00724129
-0.00406498
0.00756714
0.00626963
-0.0103346
-0.00836085
-0.00471818
0.013079
-0.00669866
-0.00409497
0.0107936
-0.0120321
0.00507941
-0.0078515
0.0038518
0.00157986
0.00400346
-0.00558332
0.00506229
-0.00568502
0.000622731
0.00310374
0.00195856
-0.000967709
0.00804889
-0.00708119
0.00565711
-0.0072228
0.0277014
7.83686e-05
-0.0277797
0.0447599
-0.0170585
-0.0324543
-0.0059775
0.00990191
-0.00835724
-0.00154468
0.00668622
0.00784425
-0.0055737
-0.00227054
0.00165333
-0.0100026
0.0044289
0.00119555
-0.0167621
0.00525759
0.00368904
-0.00894663
-0.00746004
0.00924887
-0.00178883
-0.00600336
-0.00171343
0.00771679
0.00295762
0.00710762
-0.0100652
0.00664082
-0.00532546
-0.00131534
0.00356396
0.00233203
-0.00589597
-0.0200596
-0.0291087
0.0491684
0.00698537
-0.0095637
-0.00557032
0.0112189
-0.00564856
-0.00829916
0.00188693
0.00641224
-0.000448422
-0.00927536
0.00972378
0.009854
0.00109697
-0.010951
0.00409907
0.00324257
-0.00734164
0.00766239
-0.00980739
0.00214499
0.00607007
0.000606516
-0.00667658
0.130201
-0.0478015
-0.0823996
4.45259e-05
0.00946
0.00817712
0.010547
0.0042698
-0.0148168
-0.00530605
0.0109131
-0.00560704
0.00188518
0.0055352
-0.00742038
-0.00810847
0.00334828
0.00476019
-0.000823412
-0.00624749
-0.00848839
0.0182855
-0.00979713
-0.00339707
-0.00510855
0.00850563
-0.00201277
0.00970421
-0.00769143
0.00470198
0.00799834
-0.0127003
0.00836845
-0.00947225
0.00110381
0.0114165
-0.00829031
0.0105707
-0.00761429
-0.00295642
0.00280231
-0.00950251
0.00670019
-0.00400665
0.00680896
0.000638265
0.00662741
-0.00726567
0.0105593
-0.00585732
0.00529394
0.00437215
-0.00966609
0.00587277
0.00249568
-0.00381154
0.00968431
0.010494
-0.00675518
0.00967916
0.00727397
-0.00441752
-0.00162728
0.00865919
-0.0107272
0.00784206
-0.0213941
0.00522765
0.0161664
-0.0136574
-0.00773669
-0.010091
0.00779141
0.00229953
-0.00943624
-0.000654713
0.000285809
0.00527899
-0.0055648
0.00208287
-0.00667873
0.00459588
0.0320237
0.0197322
-0.0517556
-0.0309623
-0.0177687
0.00106142
0.00239635
0.00332539
-0.00572174
0.00450956
0.000355479
-0.00394189
0.0125071
-0.00856522
0.0015992
-0.00737826
0.00577907
-0.0104784
0.00674376
0.0037346
-0.00661751
0.00235839
0.00425911
-0.00584678
0.00759299
-0.0017462
0.00437148
0.0133469
-0.0177184
0.0097622
0.00559247
0.00775446
-0.00619493
0.0104408
-0.00424584
-0.00717632
-0.0034517
0.010628
-0.00415277
-0.00422311
0.00837589
-0.00237963
-0.00590798
0.0082876
0.00229149
-0.00862173
0.00633024
0.00774485
-0.0104371
0.016596
-0.00561544
-0.0109805
0.00932151
0.00507939
-0.0144009
0.00833909
-0.033804
0.0254649
0.00116837
-0.00911401
0.00794564
-0.00512337
0.0111965
-0.00607314
0.00889481
-0.00112996
-0.00776484
-0.00108341
-0.0082298
0.00931321
0.00887088
-0.00770061
-0.00117024
0.000547655
0.000929971
0.00284589
-0.00377587
0.0133912
-0.00406967
0.0060101
0.00738109
0.0125263
0.00164647
-0.00669064
0.00504417
-0.00619576
0.00696554
-0.00076979
-0.00196963
-0.00422612
-0.000955124
-0.00825212
0.00920724
0.00912822
-0.00404883
-0.0017856
-0.00988279
0.0116684
-0.0102105
0.00842493
-0.00460887
0.00920844
-0.00459957
-0.00670132
-0.00303051
0.00973183
-0.0174244
0.0120839
0.0053405
0.0108874
-0.0142195
0.00333206
-0.0390704
-0.0189637
0.0746715
0.0555296
0.0106822
-0.00242671
-0.00825551
0.0186918
-0.0126706
0.00932387
0.00925206
-0.0185759
0.0101408
-0.00747585
0.00245449
0.00768626
-0.00608588
0.00854036
-0.00499792
-0.0069082
0.0119061
-0.00330406
-0.00288276
0.00618683
-0.0371284
0.0207575
0.016371
0.0317943
-0.0291587
-0.00263554
-0.00180499
-0.00204624
0.00385123
-0.0353858
0.0232368
0.0121489
0.00537595
-0.0251079
0.0197319
0.000220621
-0.0112797
0.0110591
0.00164137
-0.0121057
0.0104643
-0.0134182
0.00666676
0.00675142
-0.00399116
0.00770003
-0.00370887
-0.00544848
0.0108235
0.00711788
-0.00206805
0.00649573
-0.00442766
0.00255257
0.00421678
-0.00676929
-0.00717452
-0.00195873
0.00913325
0.00338804
-0.00602651
0.00263847
-0.0020615
0.0116671
-0.00960558
0.00682863
0.00665898
-0.0134876
-0.00212934
-0.00812971
0.0102591
0.00490113
-0.00940162
0.00450049
0.00534612
-0.00462684
-0.000719279
-0.00190451
-0.00491048
0.00344161
-0.00563279
0.00522111
-0.00801496
0.00705983
-0.00759305
0.000407959
0.00718509
-0.00836739
0.00856988
-0.00020249
-0.0060759
-0.00389331
-0.00813881
-0.010592
-0.00254002
-0.00734278
-0.01015
-0.00139499
-0.00594779
0.00520888
-0.0068508
0.00164191
0.00729174
0.000580848
-0.00472163
0.00846894
-0.00836287
-0.000106068
0.00239772
0.00607122
-0.0112584
0.00280982
0.00844854
-0.00548201
-0.00534675
0.0108288
-0.0201104
0.0112638
0.00884665
-0.0136331
-0.00647734
-0.00413391
0.0101343
-0.00600042
0.00517948
0.00616653
-0.011346
0.0017259
-0.00861688
0.00689097
0.0259372
0.00730277
0.0313132
0.142262
-0.238929
-0.191102
-0.00171037
-0.0069974
0.00870777
-0.00609158
0.00438121
-0.00593619
0.0115589
-0.00562273
-0.00182477
0.00364711
-0.00182234
0.0170528
-0.0138323
-0.00322049
0.000604991
-0.005845
-0.00749714
-0.0360205
0.0435176
0.0345879
-0.0420851
0.0105388
-0.0196262
0.00908739
0.00515905
0.00562856
-0.0107876
0.0190936
-0.0118378
-0.00725579
-0.0104918
0.0171836
-0.00669175
-0.0122055
0.0266698
-0.0144643
0.0159576
0.032086
-0.00541621
0.00375404
0.00405552
-0.00780955
0.0186882
0.0222606
0.0391938
-0.0211145
-0.0180793
0.00941089
-0.0112852
0.00187434
-0.00828579
0.00952044
-0.00123464
-0.0231233
-0.00198466
-0.0117481
-0.0179234
0.0159388
0.016887
-0.0138536
-0.00303342
-0.0285561
-0.0358852
0.0644415
-0.064499
0.038492
0.0260069
0.0164172
0.000268194
-0.0166854
-0.00788164
0.00448357
0.00339808
0.00301105
-0.00486709
0.00185604
0.00290053
0.00254425
-0.00544477
0.00591157
0.00567021
-0.00122627
-0.00444396
0.00335311
-0.00427987
-0.0032644
0.0041953
-0.0077251
0.0035298
0.00744283
-0.00980968
0.00832776
0.00148192
-0.00631128
-0.0034984
-0.00255214
-0.00647843
0.00903057
0.000863927
0.00815328
-0.0090172
0.00939822
-0.0085343
-0.00141609
0.0106388
0.00887363
8.17067e-05
0.00491719
-0.00499889
-0.00424272
0.00432442
0.0118497
0.00229453
-0.0141443
-0.00387834
-0.0141132
-0.0118187
-0.00168761
-0.00741624
0.00910385
0.005818
-0.0075056
-0.0014444
-0.00597184
0.00137928
-0.0105306
0.00915132
0.004342
0.00533708
-0.00967907
0.00970053
-0.00479941
-0.00382169
0.00406095
-0.000239249
0.00966554
-0.00429987
-0.00536568
-0.00745656
0.00745656
-0.0151161
-0.0230146
0.0381307
-0.00799792
0.0070879
0.000910056
-0.00440488
-0.0016867
0.0260276
0.00332419
-0.0293518
0.0130485
0.0129791
-0.0219657
0.0252899
0.00617391
-0.00399678
-0.00217714
-0.00158835
-0.00519882
0.00678718
0.00458556
-0.00761504
-0.00384006
0.0108227
0.00606433
-0.00100709
0.0118298
-0.00917903
0.0152434
0.0106768
0.00062453
-0.0113013
0.00526004
0.00541676
-0.0136818
0.0143063
-0.00539165
0.00699085
0.00551246
0.00491962
-0.0104321
-0.0052662
-0.00406513
0.00932272
-0.00174948
0.00428514
-0.00253567
0.00310714
-0.00670897
0.00360184
0.0146597
0.0015177
-0.0161774
0.00358753
-0.0111703
0.00758278
-0.00332498
-0.00331568
0.00664064
-0.00604278
0.00595288
8.99016e-05
-0.0487719
0.0673038
-0.0185319
0.00574841
-0.00972343
0.00883926
-0.00305962
-0.00577964
0.00166295
0.0498313
-0.0423841
-0.00744738
0.00363345
0.00223988
-0.00587333
0.00512831
-0.00149487
0.00613459
-0.00389471
0.00849603
-0.0221534
-0.0446538
0.0260667
0.0185871
0.0377371
-0.0149687
-0.0227684
-0.0207706
0.0234871
-0.00271658
0.0201452
-0.000350876
-0.0197943
0.00890556
0.00541639
0.0105469
-0.00713115
0.0125475
-0.0270177
0.012342
0.0146757
0.00825746
-0.00940551
0.00114805
0.00285523
0.00540224
-0.006171
-0.00392024
0.0100912
0.00549739
0.00579932
-0.00961086
-0.00229828
-0.0054646
0.00776288
-0.0093484
0.00465792
0.00469048
-0.0116467
0.00239938
-0.0101653
0.0077659
-0.00908596
0.00659531
0.00249064
-0.00668658
0.00360224
-0.00602745
0.00242526
0.00245892
-0.0101307
0.00767173
-0.00352259
0.00352258
-0.000614826
0.0072063
-0.00659146
0.00190678
0.00586831
-0.00777509
0.0188631
0.0203307
0.00161428
0.00866783
-0.0102821
-0.00334479
0.00334476
0.00388108
0.00345927
-0.00219963
0.00608072
-0.00895059
0.0103299
0.00095136
-0.00602951
0.00507813
0.00606057
-0.00126223
-0.00479834
0.00701194
0.00361648
0.0033183
-0.00693478
-0.00319079
0.00685548
-0.00366469
-0.00564474
0.00599499
-0.000350248
0.00612968
0.000122958
-0.00625263
-0.00590178
-0.00507913
0.0109809
-0.00985618
0.00184217
0.0046745
-0.00651667
-0.00859076
0.0208158
-0.012225
0.00153793
0.00662616
-0.00816409
0.00795652
-0.00641858
0.00261451
-0.00261452
0.00738048
0.00330558
-0.0106861
0.00305287
0.0043276
-0.00398397
0.00728955
0.009761
-0.00736328
0.00198062
0.00787338
0.00996862
0.00742496
0.00928073
-0.00610409
-0.00317664
0.000797132
-0.00823865
0.00744154
0.00792234
-0.00712521
-0.00158281
0.00774972
-0.00616691
0.00477621
-0.00635902
0.0048743
0.00113614
-0.00601044
0.0183238
-0.0158015
-0.00252236
-0.00783202
0.0196724
-0.0118404
0.0281722
-0.0108145
-0.0173577
0.0262119
0.00196026
0.0212715
-0.00858835
0.00195755
0.00032242
0.00689281
-0.00721523
0.00653719
-0.00602871
-0.000508483
0.0110669
-0.00772007
0.00235746
-0.0107183
0.0134244
0.00250277
-0.00250278
0.00472359
-0.00551636
0.000792783
-0.00677849
0.00877848
0.00774914
-0.0103774
0.0226365
-0.00816058
0.00671524
-0.0240729
-0.0322335
0.00887906
-0.00215883
-0.00672024
0.00279317
-0.00943977
6.59922e-06
0.00943315
-0.00961899
0.0102134
-0.000594477
0.0314543
0.00187029
-0.00528053
0.00528049
-0.00586563
0.00602669
-0.00652051
0.00505137
-0.0326559
-0.00280622
0.0354621
-0.0120478
-0.0206081
0.0335912
-0.0363974
0.00541476
-0.00541479
-0.0183761
-0.00804988
0.026426
-0.025231
0.0165881
0.00864285
0.00176409
-0.00176409
0.00315775
-0.00315779
0.00524607
-0.000830355
0.00333174
0.00276914
-0.00610089
0.00491161
0.00448576
0.00537682
0.00220667
-0.00758349
0.00153332
0.00577927
-0.00731259
0.00128736
0.00685298
-0.00814034
-0.0387244
0.0203483
0.0037178
0.00350419
-0.00722199
0.00615856
-0.00727908
0.00112052
-0.00399402
0.0066534
-0.00265938
0.00216454
0.00705504
-0.00614347
-0.000911567
0.00314195
0.00391309
-0.00688586
-0.000111539
-0.00218831
0.00218818
-0.0229517
0.0410045
-0.0180528
-0.0342
0.0114671
0.0227328
-0.0309306
-0.0032694
0.0372948
-0.0258277
0.00643828
-0.00181993
0.00108348
-0.00754886
-0.00413935
0.0116882
-0.0114907
0.00866741
-0.0128068
0.0208242
-0.0149324
-0.00589176
-0.000803044
-0.0320983
0.0171659
0.00747781
-0.00391385
-0.00258952
0.00258951
0.00829959
-0.0154307
-0.00985545
-0.00262079
0.0124762
0.0262912
-0.0329479
0.00665666
-0.0105369
0.0368281
-0.00259387
0.00873723
-0.00614336
-0.0100067
0.00741288
-0.00387046
0.00734631
-0.00347586
0.00365184
-0.00605925
0.00240739
-0.0122158
0.0124365
-0.00755239
0.00140892
-0.00277618
-0.00692885
0.00157441
0.00740144
-0.00897586
0.00744572
-0.00587131
-0.0151312
0.0165441
-0.00141285
0.00606301
-0.0147611
0.00869806
0.00681345
-0.00987308
-0.00213275
0.00213276
0.00124269
-0.00124269
0.0164437
-0.0139666
-0.00247714
0.00792228
-0.00573116
-0.00219109
0.00842724
-0.000504932
-0.0078273
0.00170028
-0.00365715
-0.00417015
-0.00725102
0.00392604
-0.00424956
-0.00739711
-0.00944433
-1.88708e-05
-0.00448077
0.00449964
-0.0370755
0.0160557
0.0210198
-0.0271537
-0.00823206
0.000978806
-0.00682558
0.00687204
-0.000742349
-0.00348971
-0.00550471
0.00899441
0.00432522
0.00967727
-0.0140025
0.00743752
0.00318406
-0.0106216
0.00388078
-0.00611707
0.00223629
-0.000710047
0.00459082
-0.00299476
0.00713448
0.00689173
-0.000170559
0.014063
-0.0138924
-0.0153017
-0.0019792
0.00197921
0.000248935
-0.00222814
-0.0131742
0.00755879
-0.00554556
0.00656854
-0.00102298
-0.000427706
-0.00511786
0.00189456
-0.00189456
2.33848e-05
-0.00554445
0.00552106
-0.00446871
0.00686507
0.00696415
-0.00767818