/*--------------------------------*- C++ -*----------------------------------*\
  =========                 |
  \\      /  F ield         | OpenFOAM: The Open Source CFD Toolbox
   \\    /   O peration     | Website:  https://openfoam.org
    \\  /    A nd           | Version:  6
     \\/     M anipulation  |
\*---------------------------------------------------------------------------*/
FoamFile
{
    version     2.0;
    format      ascii;
    class       volVectorField;
    location    "1000";
    object      U;
}
// * * * * * * * * * * * * * * * * * * * * * * * * * * * * * * * * * * * * * //

dimensions      [0 1 -1 0 0 0 0];

internalField   nonuniform List<vector> 
29874
(
(7.53361 0.0628902 1.07554e-16)
(5.39416 0.0282425 -9.91923e-17)
(5.42408 -0.121063 1.97129e-16)
(7.10991 -0.0800188 -1.15632e-16)
(7.81417 -0.118433 0)
(7.43268 0.00480606 -9.7043e-17)
(4.78084 0.094545 6.80246e-18)
(7.1241 0.0172365 2.4968e-18)
(7.44888 -0.00409842 -1.28994e-17)
(7.19173 0.211795 -1.64151e-17)
(7.20802 -0.115605 0)
(7.23881 0.103668 -3.56258e-17)
(4.44935 -0.0539285 9.23878e-17)
(8.27523 0.0492898 0)
(6.7284 0.203169 1.06321e-16)
(6.61135 0.137219 0)
(4.26388 -0.0200244 0)
(7.80772 0.211832 -1.38963e-16)
(4.96173 -0.0407731 -1.42577e-16)
(7.99515 -0.0694799 -3.69648e-18)
(7.11891 -0.0228857 3.54141e-17)
(7.07115 -0.0256887 7.08787e-18)
(7.03491 0.0593098 -9.63599e-17)
(7.52452 0.036616 0)
(5.7575 0.29419 0)
(7.77362 -0.00903033 -2.61881e-17)
(7.97504 -0.0434163 -8.92333e-17)
(5.06785 0.120232 1.23933e-16)
(5.32885 0.123025 2.17543e-17)
(4.94776 -0.118255 4.7156e-17)
(8.07332 -0.0951305 -2.78107e-17)
(5.34182 -0.0983044 -2.67434e-16)
(7.85809 0.054775 0)
(5.18956 -0.0337168 -8.32766e-17)
(7.39557 0.13047 3.39388e-17)
(5.48405 0.109216 -1.63427e-17)
(7.04331 -0.00357582 0)
(7.28798 0.313828 -7.36436e-18)
(7.51642 -0.103145 -6.37666e-17)
(5.35389 0.0233504 0)
(7.0004 0.0103883 -4.06277e-17)
(7.02987 -0.0194893 8.28586e-17)
(7.30971 0.00793478 0)
(5.62933 0.0457019 -1.04398e-17)
(8.03179 -0.134907 8.19052e-17)
(7.43936 0.0472983 0)
(4.74975 -0.15006 0)
(8.49051 0.0410011 0)
(7.26105 -0.060027 4.29954e-18)
(7.17554 -0.113107 -6.00904e-17)
(4.49077 0.141101 -9.2108e-17)
(7.8858 -0.0994258 0)
(6.78024 -0.000814637 -4.46919e-17)
(6.60898 0.0700935 3.97468e-17)
(7.67839 0.157678 -1.84563e-17)
(7.72339 -0.00931987 5.21254e-17)
(4.68753 -0.0786433 0)
(8.14692 0.032145 0)
(7.12352 -0.0633878 0)
(7.04463 0.0839003 -7.55805e-18)
(7.27215 -0.129376 1.1863e-18)
(7.23711 0.0153462 -7.48005e-17)
(7.22254 -0.232987 -1.20139e-18)
(7.48574 0.0146568 0)
(5.81297 0.0536893 -4.40695e-17)
(7.46816 0.0313654 -3.74603e-17)
(7.75569 0.143067 -1.92445e-20)
(7.60887 0.00724882 7.35935e-17)
(7.64908 -0.0924366 3.94587e-17)
(7.49969 -0.0801017 3.84331e-17)
(8.25145 -0.138847 3.77374e-17)
(7.61456 0.0175611 5.02187e-17)
(7.53144 0.104031 -3.2507e-16)
(5.65334 -0.133027 4.03082e-16)
(7.04251 -0.129307 3.90753e-17)
(8.07473 0.121854 0)
(7.81238 -0.109044 -1.67282e-17)
(8.01258 -0.0987245 1.68624e-17)
(5.00135 0.111526 6.46112e-16)
(7.36012 0.0973283 -1.80683e-16)
(5.3871 -0.0937832 -9.35177e-17)
(7.1152 -0.148494 1.08059e-18)
(6.96848 0.154272 0)
(7.43456 0.193991 -3.63319e-17)
(4.63701 -0.372643 0)
(5.09597 -0.228394 -3.97629e-17)
(7.36289 0.008655 -9.68008e-19)
(7.03536 0.0409608 2.16924e-17)
(7.94791 -0.10655 9.56222e-17)
(7.55313 -0.0653279 5.08919e-17)
(3.84102 -0.702756 -4.36087e-18)
(7.00543 0.0774635 4.78716e-17)
(6.95731 0.130865 -2.76448e-17)
(7.46643 -0.0331391 2.85899e-17)
(7.20887 -0.12389 0)
(6.6896 0.0970344 0)
(7.10229 -0.225386 -1.92263e-17)
(4.65758 -0.0119589 8.7169e-18)
(3.51649 -0.568916 -2.13978e-17)
(6.48448 -0.0599346 1.21663e-17)
(7.52405 0.049365 -2.26919e-18)
(7.01983 0.0934287 1.27426e-17)
(6.99076 0.0898425 0)
(7.35829 0.0827172 -8.14242e-17)
(7.10738 0.0912851 -6.11186e-17)
(3.55769 -0.399493 3.92019e-17)
(3.96306 -0.517876 -2.97353e-17)
(7.50532 0.00816759 5.79786e-18)
(7.59391 0.0142814 0)
(7.25218 -0.12897 -8.74855e-18)
(3.91049 0.126357 -2.68462e-17)
(7.95041 -0.17156 8.40873e-17)
(8.00951 -0.172945 -9.00865e-17)
(6.96889 0.119384 0)
(6.97485 0.132235 0)
(6.98432 0.102041 -5.5406e-17)
(6.885 -0.303175 8.21299e-18)
(7.23711 -0.181777 1.02479e-16)
(0.468053 0.0876906 -6.18627e-17)
(7.04301 0.0844468 2.46657e-17)
(6.97553 0.129521 4.20845e-17)
(8.24267 -0.196416 -1.23438e-16)
(7.20322 -0.10208 -1.14276e-19)
(7.14758 -0.135301 4.29935e-18)
(7.25636 -0.131295 7.75555e-18)
(6.65382 0.156994 -4.42295e-18)
(7.47809 -0.141469 0)
(7.20686 0.230663 -1.99449e-17)
(7.02344 0.108526 -4.8665e-17)
(6.56833 -0.272166 4.10552e-17)
(6.99954 0.00694699 0)
(6.75897 -0.261527 2.92945e-17)
(7.14235 -0.121198 -5.16203e-17)
(7.07979 0.0942513 9.86417e-17)
(7.2897 0.116713 4.1073e-17)
(7.11103 0.0559692 -3.32691e-17)
(7.25398 0.117922 7.57185e-17)
(7.044 0.00792236 -9.62295e-18)
(7.3499 0.272308 8.13267e-19)
(7.10741 -0.160766 5.97825e-17)
(7.71036 -0.263892 -7.03116e-18)
(7.76817 -0.0388047 0)
(7.02283 -0.194818 -1.67936e-17)
(7.47436 0.265712 -2.33451e-17)
(7.21172 -0.0574142 -5.43914e-17)
(7.14791 0.187779 -8.23787e-18)
(7.36147 0.0328138 3.67605e-17)
(7.31781 0.0709697 5.78556e-17)
(7.00346 0.00649478 -3.02943e-18)
(6.63569 0.12409 -5.71428e-18)
(7.80085 0.0918769 3.33401e-17)
(7.8791 -0.112756 9.88477e-18)
(6.48683 0.197115 0)
(6.93569 -0.0943231 1.37717e-17)
(7.38427 -0.0740389 2.45022e-17)
(7.02463 0.0595872 3.80963e-17)
(7.07547 -0.0136522 2.23993e-17)
(7.70263 -0.18602 -3.67306e-17)
(7.93628 -0.0952245 3.83232e-18)
(7.95737 -0.131208 0)
(7.70991 -0.137124 -6.99125e-17)
(7.23117 0.10124 1.90306e-16)
(6.90328 0.150807 -6.36759e-16)
(7.66013 -0.170374 0)
(7.76909 -0.177167 0)
(7.75455 -0.156687 7.01988e-18)
(7.69343 -0.167735 0)
(7.17874 -0.0704609 0)
(7.06839 -0.0166394 -5.7774e-17)
(7.50603 -0.182116 2.08149e-17)
(7.76248 -0.110047 0)
(7.68147 -0.15798 0)
(7.59852 -0.12069 -1.1679e-17)
(4.42044 -0.0259513 -3.65346e-17)
(4.1047 0.0970726 7.19525e-18)
(7.50076 -0.139292 0)
(7.31065 -0.164606 1.71858e-17)
(1.27135 -0.109563 -4.39196e-17)
(6.94191 0.0246762 -1.56805e-16)
(6.79157 -0.0218588 8.00033e-17)
(1.27661 -0.0651484 0)
(1.25404 0.0215981 0)
(5.00056 -0.0788302 -1.9799e-17)
(6.92419 0.115523 -3.30185e-17)
(6.58587 -0.0345407 1.61683e-18)
(8.24052 0.0615822 -3.66462e-17)
(7.02948 0.129693 -1.16705e-17)
(7.01925 0.111716 -8.60867e-19)
(7.03399 0.0798681 3.44376e-18)
(6.98348 0.124293 2.08558e-17)
(6.98596 0.0981173 1.5242e-17)
(8.33405 -0.122314 1.03577e-16)
(6.90194 -0.124251 7.77012e-17)
(6.72135 -0.21005 -4.11236e-17)
(5.19697 0.0268952 -4.61507e-17)
(7.07668 0.0692012 2.28954e-17)
(7.03761 0.0953397 4.84249e-17)
(7.6139 0.158032 0)
(1.35359 0.0187736 6.49213e-17)
(1.72667 0.0117696 0)
(7.73744 0.194022 6.94804e-18)
(8.08863 -0.0671122 0)
(7.63228 0.447467 -1.45012e-17)
(7.59847 0.278703 -1.43279e-16)
(6.97367 0.0892114 0)
(6.79388 0.112351 4.79393e-17)
(6.89719 0.0900365 7.07594e-17)
(7.37338 0.0853718 3.30831e-16)
(7.09494 -0.178444 -5.74363e-17)
(6.88948 -0.245406 -3.13308e-17)
(7.11991 -0.011069 4.37838e-17)
(7.30942 0.0279858 -2.63515e-17)
(6.37673 -0.133813 -6.42952e-17)
(6.80739 0.0890827 -1.41122e-16)
(7.27208 0.214068 2.94169e-17)
(7.17884 -0.211574 -5.13124e-17)
(7.26485 -0.184748 -4.86187e-18)
(7.20427 -0.156949 -2.56154e-17)
(7.28162 -0.133453 1.62189e-17)
(7.45799 -0.140136 0)
(7.66708 -0.000132943 -9.93156e-17)
(8.29575 -0.0641553 -3.14909e-17)
(6.89921 0.0105239 5.10017e-17)
(7.42672 -0.0572775 -3.91015e-18)
(7.0012 0.0532172 -6.42873e-17)
(7.31807 0.0530001 0)
(7.60252 -0.0161548 5.96431e-18)
(7.454 -0.122994 -5.91904e-18)
(7.79676 0.165035 -2.72028e-17)
(6.98959 0.229268 -1.94364e-17)
(7.00367 0.0228107 0)
(7.00153 0.0442449 5.25266e-17)
(7.39579 -0.0833598 -1.22095e-17)
(7.26019 -0.0576469 1.13526e-17)
(6.80444 -0.090173 4.18849e-17)
(6.93282 -0.0819085 0)
(6.50737 -0.237231 0)
(7.76704 -0.112148 -2.09819e-17)
(7.59553 -0.130044 8.63247e-18)
(7.82481 0.0782714 -8.01667e-18)
(8.02143 -0.0773875 5.87486e-17)
(2.50006 1.2955 -7.04749e-18)
(2.97342 -0.477298 7.47118e-18)
(6.09556 2.40315 -2.48563e-18)
(6.2 2.45254 0)
(2.9973 -1.37814 1.33199e-17)
(2.91738 -1.35749 1.39368e-17)
(7.58834 -4.0098 4.26256e-18)
(6.62098 1.12811 1.57035e-17)
(7.4735 -1.18046 2.13342e-19)
(4.27542 -0.748782 -2.14527e-17)
(6.60421 1.63505 9.92045e-19)
(5.0058 -1.39517 -1.54861e-17)
(3.9896 -0.716989 0)
(7.10099 -0.313157 -6.40446e-18)
(3.23941 -0.46582 -2.2474e-17)
(4.27531 -1.35585 -1.24868e-18)
(0.65224 0.32006 6.76226e-17)
(7.53556 -1.14722 2.64552e-19)
(4.13535 0.152236 2.45982e-18)
(5.79547 -3.41394 1.03231e-18)
(3.95597 -0.428718 -3.48565e-19)
(4.29153 -1.43412 0)
(6.40487 -3.20923 1.33234e-18)
(6.68189 -3.40598 5.28839e-18)
(6.3785 -3.83823 2.04179e-18)
(6.4962 -3.8518 -1.27248e-18)
(6.26036 2.18995 -1.91994e-18)
(6.20312 2.29021 2.08546e-18)
(0.734525 -0.382449 0)
(3.15087 -1.35149 2.74003e-18)
(3.06104 -1.29611 -1.92352e-17)
(4.12673 -0.75713 1.93542e-17)
(6.05859 -1.69935 -1.0122e-17)
(6.58815 2.73069 1.77637e-19)
(6.10102 2.72093 1.09944e-19)
(5.51345 -3.85154 1.45771e-18)
(1.59512 0.619061 -1.74593e-17)
(6.05587 2.35255 -3.31957e-18)
(6.54676 -1.58328 0)
(6.64426 -1.4947 1.7494e-20)
(6.85417 1.74987 -4.60337e-20)
(6.77902 1.74967 0)
(6.45754 1.96256 -2.51942e-18)
(6.50469 2.00541 0)
(6.50117 1.13247 0)
(6.68219 1.83878 -1.40582e-18)
(6.74192 1.83535 1.21803e-18)
(3.25613 -0.595836 3.11406e-17)
(3.36773 -0.642482 3.05191e-17)
(5.92048 2.66068 -2.28906e-18)
(6.23806 2.43335 0)
(6.21461 2.44201 0)
(7.50755 -3.3714 4.18244e-18)
(7.36878 -3.70421 6.6664e-18)
(4.32217 -0.579684 0)
(4.28035 -0.295063 0)
(5.62678 -3.66446 1.49829e-18)
(4.80092 -1.1551 3.85896e-17)
(4.27604 -1.00237 -1.10338e-17)
(3.67855 -0.71429 -3.55699e-17)
(3.77266 -2.11183 2.71311e-18)
(6.28461 2.11912 0)
(3.58697 -1.52015 -3.35207e-18)
(6.19364 2.42771 4.08347e-19)
(6.2208 2.30527 -5.17222e-19)
(3.2082 -1.25924 9.83849e-18)
(6.80161 -0.394089 0)
(5.52246 -3.66859 0)
(2.74325 0.00981252 0)
(6.32838 -4.17623 1.43084e-18)
(6.34873 -4.14184 -6.97998e-19)
(5.54041 -3.72635 0)
(5.62723 -3.75829 -2.75972e-18)
(5.47934 -3.76541 1.43718e-18)
(4.11733 -0.392403 1.14858e-18)
(4.18034 -0.529994 1.28056e-21)
(6.67785 -2.70806 -1.94205e-19)
(6.1962 2.19071 3.27211e-19)
(6.16741 2.25275 4.99007e-18)
(6.61043 -3.58673 2.81364e-18)
(6.61617 -4.32033 0)
(3.13639 -1.49492 -7.47389e-18)
(3.08397 -0.313695 0)
(6.12023 2.25211 -5.35428e-18)
(6.10611 2.28715 0)
(6.09052 2.19646 0)
(7.06997 0.250311 -1.78371e-17)
(4.2747 -0.372151 -3.07564e-18)
(4.31106 -0.507664 -3.33221e-18)
(6.59377 0.498599 -7.78151e-17)
(6.70216 0.382356 -4.9137e-17)
(3.93065 0.817781 2.12423e-18)
(3.87317 0.953641 -2.67388e-18)
(6.43578 -4.15458 0)
(5.94772 -3.70711 1.51412e-19)
(6.24319 2.38316 0)
(6.30611 2.35017 0)
(6.28004 2.32653 0)
(6.27494 2.39811 0)
(3.04549 -1.18577 -5.50318e-18)
(5.39185 -3.75805 0)
(3.03626 -0.488905 1.00345e-17)
(3.12309 -0.485875 -6.42951e-18)
(3.08975 -0.410088 -1.78049e-17)
(3.07462 -0.531054 -5.23663e-18)
(6.38977 2.2615 5.76783e-19)
(6.34909 2.23219 4.03272e-18)
(6.51659 -4.2352 1.49e-18)
(6.21318 2.38352 3.76706e-19)
(6.63358 1.52705 9.75691e-18)
(7.47584 -0.439572 0)
(6.96297 -2.662 1.80111e-17)
(7.36922 -3.12673 3.80872e-18)
(6.42531 -2.2369 0)
(7.0723 -0.344803 2.71406e-18)
(3.26111 -0.3425 0)
(3.27998 -0.118472 0)
(5.74412 -0.790189 0)
(0.667729 -0.208183 6.15488e-17)
(6.83046 -2.91303 -5.90112e-19)
(2.80849 -1.88147 -1.13444e-18)
(7.28267 -2.94926 0)
(3.06262 -0.638141 4.63184e-18)
(3.05387 -0.835752 9.97667e-18)
(6.24644 2.41323 -7.97715e-20)
(6.23446 2.39478 -1.39445e-20)
(6.27515 2.40296 1.14216e-19)
(6.18586 0.324088 -7.88232e-17)
(3.47275 -0.16642 3.05108e-17)
(3.34275 -0.322423 2.19542e-18)
(3.48959 -0.326221 -3.38082e-17)
(3.35904 -0.157566 -2.30834e-18)
(6.98966 0.17053 2.08334e-17)
(7.05653 -0.250411 -2.96189e-18)
(3.51032 -0.0975216 -2.45989e-17)
(3.79387 0.0485634 -5.85777e-18)
(3.76163 -0.121678 1.07904e-18)
(3.66004 0.618112 0)
(3.8652 0.36174 2.61495e-17)
(2.97215 -1.17304 0)
(2.95671 -1.07801 7.99325e-21)
(6.61496 -0.573981 7.61386e-18)
(6.66523 -0.363329 3.22178e-18)
(6.19128 2.32552 -5.45241e-19)
(6.21589 2.37147 5.73781e-19)
(3.47369 -0.263546 1.92421e-17)
(6.3501 2.3596 0)
(6.38389 2.31818 0)
(6.36136 2.43275 0)
(6.98494 -3.69423 5.86007e-18)
(7.24114 -3.78248 0)
(2.88483 -0.456378 -6.40074e-18)
(7.19088 -3.14 -5.94814e-18)
(6.83216 -3.30201 5.93807e-18)
(6.4212 -4.23187 0)
(6.36478 -4.18879 -1.50808e-18)
(6.45017 -4.20621 6.19868e-20)
(6.34284 -4.21623 0)
(6.72183 0.279484 0)
(6.46612 -3.723 8.48808e-20)
(6.53531 -3.81387 1.31592e-18)
(6.60668 -3.68834 -1.33587e-18)
(6.43795 -0.427968 -4.0429e-17)
(6.45726 -0.548028 5.49027e-17)
(6.52421 -0.368902 -6.16595e-17)
(3.11517 -0.265191 5.55347e-18)
(3.20614 -0.169257 -5.72649e-18)
(3.13559 -0.165644 -2.89275e-18)
(3.1963 -0.272559 2.77864e-18)
(4.38322 -0.41946 -3.14727e-17)
(4.15825 -0.532004 1.09749e-18)
(4.2834 -0.549824 0)
(4.31855 -0.320719 1.91257e-17)
(6.83748 0.565352 1.901e-17)
(3.28141 -2.93684 3.68972e-18)
(3.54334 -2.79792 1.5601e-18)
(3.35071 -1.81473 6.18057e-20)
(3.19905 -1.84974 -5.2468e-18)
(3.1017 -0.140866 -5.10215e-18)
(3.10759 -0.0232204 5.4689e-18)
(3.00835 -0.161036 0)
(4.12988 0.483592 0)
(3.86408 0.777179 9.15156e-18)
(4.32538 -0.240324 0)
(4.11851 -0.029877 0)
(4.0446 -0.220509 0)
(4.34134 -0.109734 0)
(6.64232 -1.32677 5.02107e-20)
(6.63958 -1.38719 0)
(6.19461 -3.61714 1.2224e-18)
(6.21078 -3.71252 0)
(6.32641 -3.67248 1.72723e-19)
(6.11109 -3.60486 -3.47796e-18)
(3.82469 1.02087 0)
(6.31293 -3.28203 -5.10459e-18)
(5.98677 -3.38778 0)
(3.8292 1.49403 -1.25603e-18)
(3.93032 1.05553 0)
(3.71157 -0.385758 -2.43865e-17)
(3.95134 -0.235191 0)
(3.79734 -0.191725 0)
(3.92825 -0.385263 3.00571e-17)
(3.39755 -1.14319 4.21262e-17)
(3.3374 -1.26721 -1.51204e-17)
(6.92779 0.138033 -4.93712e-18)
(6.5766 -0.067617 9.29929e-17)
(6.53411 -0.175541 0)
(6.49011 -0.132517 9.25605e-17)
(6.61506 -0.152831 0)
(3.33964 -1.03811 -1.82593e-17)
(3.41781 -0.901743 0)
(3.21704 -0.997921 0)
(4.453 -1.10031 -2.54044e-17)
(4.62034 -0.731478 -1.14149e-17)
(4.43635 -0.830024 1.17943e-17)
(6.14597 -3.81575 1.01771e-18)
(6.19944 -3.76315 1.65818e-18)
(6.27096 -3.80021 -1.03451e-18)
(6.09873 -3.74239 -2.18802e-18)
(6.92705 -3.62046 -7.50143e-18)
(6.76744 -3.4637 -4.70192e-18)
(6.98196 -3.52483 1.74476e-18)
(6.72093 -3.56449 -3.42678e-18)
(4.19772 -1.00632 0)
(4.2041 -1.09499 0)
(4.09885 -1.00256 -3.25739e-19)
(6.09669 2.78102 4.52676e-20)
(7.35219 -0.182637 -2.88336e-17)
(7.17218 -0.213726 3.31337e-18)
(7.2457 -0.203686 1.79439e-17)
(7.27923 -0.18481 -1.21053e-17)
(6.3654 2.9266 -8.41186e-20)
(5.24183 -0.15469 5.19464e-17)
(6.08425 2.35489 -1.75462e-18)
(6.09671 2.37991 -8.23363e-19)
(6.1157 2.32277 1.45748e-18)
(3.39801 -1.39328 0)
(3.31658 -1.54279 0)
(3.58482 -1.41391 2.63168e-17)
(6.01234 -1.34067 5.93473e-18)
(3.53649 0.373436 0)
(3.71013 0.374134 2.54153e-19)
(3.63878 0.29421 0)
(3.6138 0.505659 -1.08822e-17)
(6.93515 0.431778 2.46146e-17)
(3.06318 -0.918969 2.90318e-18)
(2.96739 -1.02777 -6.54814e-18)
(2.97232 -0.956891 3.45276e-18)
(3.0632 -1.01375 0)
(8.02912 0.198878 -6.37884e-17)
(0.600588 -0.0981904 1.19037e-16)
(7.76051 -0.340665 4.48385e-17)
(8.07243 -0.0231976 0)
(1.79804 -0.15908 -3.50259e-17)
(7.08512 0.289564 -1.51845e-17)
(4.66737 0.0630908 -7.8362e-17)
(6.99738 0.0212847 3.9226e-17)
(7.00724 0.108132 -2.53451e-17)
(7.00651 0.0826494 -5.06455e-17)
(7.96848 -0.225146 0)
(3.38998 -0.428991 -3.34718e-18)
(6.75581 0.281996 0)
(6.80053 0.235612 1.86646e-17)
(6.02384 -0.0885217 0)
(6.30998 0.186828 -9.18633e-17)
(6.20089 0.232096 4.88363e-17)
(6.51146 0.0712223 2.59236e-17)
(6.43942 0.113894 0)
(2.94432 -0.268156 6.85811e-18)
(6.91753 0.176265 -4.47698e-17)
(6.89519 0.20982 -4.90945e-17)
(5.39789 -0.178808 -3.2167e-17)
(6.95641 0.296284 1.8776e-17)
(6.94534 0.34867 1.24673e-17)
(2.8028 0.495443 2.92428e-17)
(7.00928 0.0756419 4.47796e-17)
(7.69622 0.338544 -1.90949e-17)
(0.448402 0.129178 -7.66134e-17)
(7.00036 0.144351 -1.16697e-17)
(6.96923 0.229904 3.03548e-17)
(7.19088 0.282848 0)
(5.43146 -0.34064 -6.39043e-17)
(7.40585 -0.205418 9.17105e-17)
(3.09839 -0.299259 3.4729e-18)
(3.28694 -0.214861 -1.83614e-17)
(6.88372 0.880105 1.31994e-17)
(7.01187 0.118764 3.349e-17)
(7.33119 -0.251207 -2.43033e-17)
(7.38729 -0.267542 -8.49401e-17)
(7.33843 -0.322352 2.78777e-17)
(7.62259 -0.195635 4.10988e-17)
(6.57934 -0.406807 7.09782e-18)
(6.55897 -0.509976 -9.78535e-18)
(7.12158 -0.179055 8.85775e-19)
(7.1066 -0.218535 2.25515e-17)
(7.055 0.208251 -8.79745e-18)
(6.36757 -0.297486 -6.96645e-17)
(6.71835 -0.418828 0)
(6.69125 -0.535934 0)
(6.95896 -0.151244 -5.33059e-18)
(6.85225 -0.155673 0)
(0.426209 0.123842 0)
(2.88782 0.438812 1.71152e-17)
(7.56123 -0.147369 3.18506e-17)
(7.64452 -0.121433 5.71782e-18)
(7.25355 0.399596 1.81438e-19)
(7.07211 -0.218553 0)
(7.1372 -0.187759 0)
(6.69697 0.224855 -1.75521e-17)
(7.58693 -0.380028 0)
(7.00236 0.0691025 -2.3453e-17)
(6.99678 0.0860379 8.46258e-17)
(7.01217 0.177156 -1.76245e-18)
(7.34434 -2.93014 1.33959e-17)
(6.81246 -2.39137 -1.06338e-17)
(6.80273 -2.27244 9.88136e-18)
(5.67496 0.0774763 3.89282e-17)
(7.00949 0.152129 0)
(4.94409 -0.11269 -2.32105e-16)
(7.37746 -0.350577 0)
(6.6581 -0.0668822 -2.44663e-17)
(6.41099 -0.0749917 1.17406e-17)
(6.28462 -0.0777855 1.13844e-17)
(7.10938 0.331109 -2.57775e-17)
(2.80419 -0.526445 0)
(7.47695 -0.37371 8.18712e-18)
(7.43124 -0.340596 -3.87713e-17)
(4.75498 -0.149892 0)
(4.9479 -0.139943 0)
(2.92117 -0.932572 9.05456e-20)
(7.80942 0.232772 -9.57934e-18)
(7.22267 0.217342 -3.84574e-17)
(7.30216 -0.0329897 0)
(8.36982 -0.0563164 -1.06465e-16)
(7.16051 0.367698 0)
(7.12655 0.326007 1.24447e-17)
(6.94381 0.19123 -3.3525e-17)
(4.74016 -0.516871 0)
(8.16181 0.109932 -4.02935e-17)
(7.95626 0.190228 -8.44263e-17)
(5.96815 0.0187015 4.86328e-17)
(5.81465 0.0897566 -5.69658e-17)
(7.3408 0.0940473 -1.23361e-17)
(6.3474 2.10177 1.6096e-18)
(6.38332 2.01067 -1.75773e-18)
(5.94098 -0.138249 -2.01904e-17)
(7.00073 0.0208494 0)
(6.98769 -0.319617 -2.3602e-18)
(7.06389 -0.248412 -2.39759e-18)
(7.00836 -0.276716 0)
(8.15023 -0.0245805 1.2773e-17)
(8.07963 0.0384449 -2.5551e-17)
(3.93482 0.487978 0)
(3.82055 0.649704 2.0003e-17)
(6.38407 2.14484 2.86693e-18)
(6.46794 2.10147 -2.648e-18)
(6.78736 0.0410013 1.46889e-16)
(6.57134 0.0431046 5.4106e-17)
(0.770974 0.16934 1.00982e-17)
(5.15313 -0.0494523 4.87825e-17)
(7.07601 -0.00674607 -9.49556e-17)
(6.94411 0.134689 -4.03667e-17)
(6.8774 0.154495 6.61063e-17)
(6.82838 0.188318 -5.77155e-17)
(7.00951 0.0547369 0)
(7.00205 0.0433834 -1.19695e-17)
(6.93247 -0.354789 2.36896e-18)
(6.93748 -0.300874 -8.2373e-18)
(7.00888 -0.260304 0)
(3.61972 -1.32669 -2.87778e-17)
(3.52402 -1.15786 -8.13019e-18)
(3.61597 -1.03252 0)
(6.88429 0.173404 -6.96047e-17)
(6.84843 0.241119 -3.84758e-17)
(6.87151 0.208137 4.60645e-17)
(6.8185 0.256058 6.24677e-17)
(7.83668 0.353506 1.01351e-16)
(7.7877 0.306685 -4.37994e-17)
(7.83123 0.23284 0)
(6.78127 -0.0815208 2.91566e-17)
(3.02726 -1.50836 -7.31696e-18)
(6.61171 0.100489 -2.59904e-17)
(6.57519 0.148324 4.41726e-18)
(6.94791 0.056917 1.12592e-16)
(7.27226 -0.0841256 1.35981e-16)
(3.61097 -1.5885 0)
(3.41166 -1.6706 4.74884e-18)
(5.64579 -0.0517191 -9.21417e-17)
(5.47943 -0.0688947 3.80892e-17)
(7.37805 0.100952 0)
(6.84189 -0.0846743 8.64295e-17)
(7.52121 0.0753336 -4.79405e-17)
(7.33984 -0.164201 0)
(7.57492 -3.71277 8.14076e-18)
(7.51805 -3.45559 -8.45234e-18)
(5.07051 0.059134 0)
(5.235 0.000464192 -4.94825e-17)
(5.38286 0.0689971 3.35573e-17)
(4.22163 0.291699 0)
(4.38429 0.249027 2.17193e-17)
(6.85983 0.27512 -1.59724e-17)
(6.84739 0.316265 -1.45788e-17)
(6.81858 0.330189 0)
(7.95926 -0.208795 -7.26774e-17)
(7.05401 0.0101827 0)
(6.96895 -0.00534991 -4.04426e-17)
(6.50381 -0.0081967 -1.68259e-16)
(6.34061 -0.0806804 0)
(6.40845 -0.00503441 1.00824e-17)
(7.11638 0.254 1.71873e-17)
(7.12091 0.29038 3.22673e-18)
(6.22737 -0.0602082 0)
(6.20916 0.0366433 -2.48224e-17)
(6.1005 0.089929 -1.14104e-16)
(7.01318 0.0296229 0)
(7.54394 -0.346999 0)
(7.67396 -0.298122 0)
(7.67376 -0.27081 0)
(0.820366 -0.113417 -5.1614e-17)
(2.83424 0.436485 -8.14036e-18)
(7.12425 -0.246949 0)
(7.08837 -0.286346 1.15106e-17)
(7.05188 -0.280182 -7.25673e-18)
(3.64155 -0.732428 6.16807e-18)
(3.55915 -0.889555 0)
(7.71992 -0.120756 5.70063e-18)
(7.97515 0.0730121 6.39233e-17)
(7.71577 0.150211 0)
(9.64044 0.459383 1.119e-18)
(9.59477 0.527659 0)
(5.96658 1.26158 1.66034e-19)
(6.02203 -4.22683 1.11495e-20)
(6.65073 0.559656 -7.23497e-17)
(3.70974 0.304094 2.04033e-18)
(6.48677 1.25969 -3.39515e-20)
(2.91516 0.50932 6.74776e-18)
(3.82674 -0.669162 0)
(6.12125 3.13097 1.63398e-19)
(5.86114 -3.0952 0)
(5.89011 -3.17835 0)
(6.96805 -4.46304 0)
(6.25522 2.17417 0)
(6.2572 2.16076 3.69563e-20)
(6.07975 2.29357 0)
(6.07505 2.31902 -2.13476e-21)
(6.10276 0.899209 0)
(7.83462 0.376611 -5.15749e-19)
(6.71539 -1.79798 0)
(3.8871 -2.23577 1.39681e-18)
(4.33451 0.2342 2.48146e-19)
(6.1643 -1.89945 5.20652e-20)
(6.19436 -1.94725 -6.58135e-20)
(6.6813 -4.35538 -1.57765e-19)
(6.68301 -4.35266 0)
(6.9102 1.14394 0)
(8.33485 0.988936 0)
(1.53817 -1.70632 4.24253e-17)
(2.78495 0.0938745 -2.20393e-18)
(2.24789 -2.57889 -6.45646e-18)
(2.14195 -2.53037 0)
(6.49109 2.70108 1.64675e-20)
(7.39381 0.878591 0)
(7.38429 0.918693 0)
(4.86702 1.01054 0)
(3.51898 -2.63925 0)
(7.36736 0.637847 -2.91973e-20)
(2.55104 -0.850243 -5.17612e-18)
(7.15737 1.33191 3.01959e-20)
(3.52135 -1.83235 -1.8628e-18)
(6.06902 0.915398 -1.39828e-22)
(4.08249 1.00021 0)
(4.05656 0.955852 0)
(6.52496 2.92252 0)
(7.94383 0.276571 -5.00687e-19)
(6.3944 -4.29212 7.564e-19)
(3.23049 -3.56189 2.02362e-18)
(3.39005 -3.30124 2.97581e-20)
(6.94708 1.13371 0)
(8.36533 -0.471569 0)
(6.06583 3.15837 -4.10772e-19)
(6.01621 3.11778 0)
(5.94307 2.93113 8.02008e-19)
(6.69539 -0.761123 1.93827e-17)
(7.9271 0.591784 0)
(7.26365 1.04725 -6.82433e-20)
(6.69558 -0.857341 2.2398e-17)
(6.07755 3.52994 -1.96664e-21)
(6.55362 -1.75089 -5.06121e-20)
(6.54966 -1.70314 6.06336e-20)
(6.94741 -4.41487 8.32034e-19)
(6.97835 -4.41282 2.85886e-18)
(7.3759 0.78115 -4.95739e-20)
(7.37941 0.725415 -1.37773e-20)
(8.55067 -0.196767 1.39498e-18)
(6.19498 2.14328 0)
(6.2358 2.15235 -3.43632e-20)
(8.91645 1.03344 2.01518e-18)
(6.43459 1.10212 3.13004e-20)
(5.58335 -4.0785 1.85535e-18)
(5.28028 -2.91586 -2.08395e-18)
(5.85599 3.0898 -3.15649e-20)
(6.3016 -2.05074 1.70077e-20)
(7.71983 0.315638 0)
(5.80392 -2.34964 4.32559e-18)
(6.34879 0.901398 -7.64272e-18)
(6.17722 -1.1698 0)
(4.01894 -1.48754 3.08314e-17)
(8.98564 0.0785919 2.91113e-20)
(3.20893 2.13497 -2.77254e-18)
(5.70833 2.48064 1.45099e-18)
(5.65731 2.44574 -1.41813e-18)
(7.25841 1.20973 0)
(4.0176 -0.790374 -3.18039e-19)
(4.07553 -0.950232 -2.89505e-19)
(6.20798 2.28849 2.11209e-19)
(6.22853 -2.05663 4.40125e-20)
(4.10061 1.68993 -2.85148e-19)
(2.92308 -0.0729687 6.47142e-18)
(2.99382 0.0906614 1.16497e-17)
(7.10816 -1.10249 2.0055e-19)
(6.14828 1.09196 1.29692e-19)
(6.1751 1.11195 -2.11362e-19)
(5.81775 -4.20963 -9.53033e-19)
(5.73821 -4.20291 -1.98669e-20)
(8.30185 0.352695 3.83517e-19)
(8.30222 0.401439 2.75965e-19)
(6.9255 -1.35699 0)
(6.98624 0.646538 -1.18303e-20)
(4.07468 1.36799 1.47041e-18)
(4.17679 1.29332 1.90325e-18)
(7.0672 3.33615 1.20506e-19)
(7.08873 0.757286 -2.81873e-20)
(5.29503 -4.05249 -1.08741e-18)
(6.25066 3.29568 2.06299e-20)
(6.32763 3.181 -2.52247e-22)
(4.71434 -0.175505 -1.26891e-18)
(4.93718 -0.218723 -5.927e-19)
(7.73385 -0.70196 0)
(6.6227 0.735221 1.13511e-19)
(7.90857 0.781436 0)
(7.7851 0.74858 2.24725e-19)
(6.44585 0.858855 -1.79422e-19)
(4.44881 -1.44261 0)
(4.37092 -1.46578 0)
(6.31968 1.07219 2.62339e-20)
(7.52397 0.296612 -1.20167e-19)
(7.13348 -4.44244 0)
(5.59025 1.29896 0)
(7.20839 -3.23898 0)
(6.11175 -4.25878 5.06877e-19)
(6.08559 -4.26177 9.05622e-19)
(4.63055 0.238695 1.68826e-18)
(4.66697 0.180617 -1.50603e-18)
(3.58361 -1.18059 -3.10589e-19)
(8.12656 -4.36967 1.00708e-18)
(7.62722 -2.43014 1.06414e-19)
(1.19771 -3.32231 4.8047e-18)
(7.64678 -3.55741 3.95237e-19)
(5.89102 2.08587 -1.15516e-19)
(6.14959 2.43832 6.07885e-19)
(7.36651 -0.418179 -2.81267e-19)
(7.47992 -0.423875 1.20756e-19)
(5.79824 2.94019 7.0486e-20)
(4.07469 -0.62649 1.24222e-18)
(4.21582 -3.03919 5.63198e-18)
(6.61566 1.22824 0)
(9.16557 -2.02175 2.25016e-18)
(7.51701 0.999907 1.86732e-19)
(6.80153 -0.851845 0)
(6.67009 0.825892 4.27943e-20)
(6.18722 1.94761 7.0298e-19)
(6.14547 1.90764 -1.43476e-18)
(8.07778 -0.305727 4.33277e-19)
(8.06303 -0.218966 -7.8875e-19)
(6.0967 -2.45495 -2.44053e-19)
(4.34585 0.69615 -9.3013e-19)
(6.34608 2.3252 -9.70151e-20)
(6.42925 3.06577 -1.5208e-21)
(7.2305 1.1629 1.81648e-20)
(5.94652 1.20293 1.59773e-19)
(6.91886 0.712584 0)
(2.37034 -1.91587 0)
(3.80487 -0.586849 0)
(8.16961 1.65082 1.30605e-19)
(7.66662 -0.552229 2.16532e-19)
(6.85169 -1.35417 -1.11348e-19)
(6.70965 -1.39109 0)
(4.90955 0.134118 -1.4805e-18)
(4.97267 0.13221 0)
(4.99715 -3.31071 3.62272e-21)
(5.09749 -3.34381 -5.18777e-19)
(6.5168 -0.714671 0)
(8.32131 -0.0396415 0)
(8.31015 0.0122102 0)
(6.77046 -4.37634 0)
(6.71119 -4.35864 0)
(6.54509 2.50933 8.55473e-21)
(6.54338 2.95989 -5.32994e-21)
(6.53504 2.99904 1.35412e-20)
(6.30073 2.32077 -1.1768e-19)
(7.12027 -1.23814 2.12905e-19)
(6.97365 -1.30288 8.04429e-20)
(7.06181 3.3894 -2.69114e-19)
(5.69727 1.26285 0)
(5.88659 1.2019 3.10856e-19)
(5.89573 1.1618 1.6068e-19)
(7.23147 0.918614 1.52256e-19)
(7.33508 0.926307 -1.40648e-19)
(7.83933 -4.692 4.43762e-18)
(7.91326 -4.6585 0)
(6.03497 2.31871 -2.80285e-20)
(6.89407 -0.760686 8.49128e-20)
(6.86587 -0.847762 0)
(2.96189 0.622241 -7.00281e-18)
(2.92443 0.580898 7.95729e-18)
(2.95701 0.739894 -3.56688e-18)
(6.66532 -4.33561 9.24467e-19)
(6.01011 0.0375706 0)
(6.18195 -0.602974 0)
(5.84606 0.786952 3.84295e-19)
(5.98388 -1.9187 0)
(4.48273 0.686974 -9.95119e-20)
(4.57643 0.595043 1.20129e-18)
(7.23956 -4.08423 4.02025e-18)
(7.29732 -0.409124 -3.23424e-19)
(6.20534 2.20194 -1.86181e-19)
(7.23348 1.77121 8.71059e-20)
(8.13207 -0.625952 0)
(8.22729 -0.498532 0)
(6.10771 0.583923 9.1133e-21)
(6.91716 -1.66645 2.89599e-19)
(6.16882 -4.27027 -2.05748e-19)
(6.48001 1.52021 8.85306e-19)
(7.8116 0.719854 0)
(7.88639 0.73484 0)
(5.91498 -4.17701 5.47572e-19)
(6.03605 -4.2037 0)
(6.84395 -4.27137 -7.31066e-19)
(4.76948 0.424353 0)
(4.68513 -0.117429 2.14629e-19)
(3.29806 -3.23391 0)
(6.31897 2.21328 1.14454e-19)
(5.95083 -4.25859 0)
(6.30811 2.24777 5.51931e-20)
(6.35113 2.28353 -9.69026e-20)
(5.84277 -3.25346 2.4419e-19)
(5.72086 -3.36589 0)
(7.52083 -0.886322 0)
(7.45927 -0.921905 0)
(8.14704 1.22703 0)
(6.28761 2.23376 -5.80203e-20)
(6.25054 2.19906 1.80984e-19)
(6.34823 2.26211 -6.21206e-20)
(6.37095 2.26073 5.36167e-20)
(6.33173 2.2455 8.16541e-22)
(7.44205 0.72355 -1.28391e-19)
(4.90488 0.986702 0)
(9.0894 -2.06337 9.63306e-19)
(6.49478 2.7375 7.12876e-21)
(6.28459 2.53495 -2.92186e-19)
(6.25126 2.54564 0)
(5.48348 -4.17817 -3.98033e-19)
(5.48856 -4.2175 4.0901e-19)
(6.77169 1.12002 -8.62888e-22)
(4.10528 0.615993 -4.48921e-20)
(5.04792 -1.68631 -1.77529e-17)
(4.67134 -1.33406 1.99789e-17)
(5.77596 -2.04076 1.43236e-18)
(6.192 1.17585 1.434e-19)
(3.68093 0.24167 -3.26397e-18)
(6.05352 2.24699 -1.62769e-19)
(6.44987 2.32828 1.31747e-20)
(7.80869 -4.24196 -1.24709e-18)
(4.25865 1.19019 0)
(5.147 -0.229958 -7.95529e-19)
(6.03771 2.33648 5.21623e-19)
(6.0528 2.32172 -7.08068e-19)
(6.01179 2.32354 -1.50353e-19)
(6.36318 -1.6735 2.95376e-20)
(6.86091 -1.10204 0)
(7.68683 -3.95028 1.17476e-18)
(6.64166 -1.08912 1.85727e-20)
(6.5449 -1.15381 2.25713e-20)
(7.71287 0.738727 1.61377e-19)
(6.56613 -4.32375 -3.13485e-21)
(6.44949 -4.29924 0)
(5.65586 -3.20035 5.34252e-19)
(7.0625 -4.09568 3.01801e-19)
(6.45071 -2.84769 1.26274e-19)
(6.26762 -4.27809 7.47872e-19)
(8.12901 -1.16433 -8.9019e-20)
(3.36963 -3.10112 -1.6941e-18)
(3.46597 -3.16379 -9.23021e-21)
(1.72011 -1.45805 1.63958e-17)
(6.48098 -4.30067 2.6992e-19)
(6.45822 -4.28891 0)
(6.54269 -4.31267 -3.07195e-19)
(2.80399 0.725437 -9.97424e-18)
(4.49218 0.902727 -4.34808e-19)
(4.47901 0.954836 2.26356e-18)
(6.19754 -1.3351 0)
(6.39793 -4.28596 6.7678e-19)
(7.88909 -0.699635 -1.48775e-19)
(7.99062 -0.661861 -1.79196e-19)
(6.28333 -0.147359 -1.4931e-19)
(7.48706 0.923721 1.27009e-19)
(5.44977 3.0073 -4.91315e-19)
(3.16168 0.539302 0)
(7.63081 -4.14757 0)
(6.44526 1.59707 4.76491e-18)
(6.46228 -1.78888 1.60517e-22)
(5.90047 2.71812 1.2225e-18)
(5.90783 2.85691 -5.43208e-19)
(6.45793 -0.721943 0)
(6.44161 -0.801083 2.54421e-20)
(6.38076 -0.834818 -8.38114e-20)
(7.18169 -4.62192 1.3671e-19)
(3.13834 -1.41798 -5.38289e-18)
(6.3599 2.72967 -1.38208e-19)
(6.22804 2.83741 6.71189e-19)
(2.27422 -0.98155 -1.31478e-17)
(6.12388 2.72996 1.67835e-18)
(5.38329 -3.54846 0)
(6.26522 2.95081 6.61829e-20)
(6.22657 3.06274 -5.11367e-20)
(6.7312 -4.37005 -5.0044e-19)
(5.33203 -0.20991 -9.45652e-19)
(6.3432 3.23214 0)
(6.31017 3.29151 4.49408e-21)
(4.01061 0.209401 -1.25132e-18)
(3.86372 -3.18265 1.11497e-18)
(7.73115 0.646949 5.31485e-19)
(3.70771 1.85338 -2.42378e-20)
(5.39599 -4.05053 6.57275e-19)
(5.34636 -4.08381 -1.52466e-18)
(6.41654 2.53796 -3.12246e-20)
(6.1734 -0.243641 0)
(4.17519 -0.153673 -1.52792e-19)
(4.24312 -0.252781 0)
(4.1688 -0.243238 1.42223e-19)
(4.02245 1.39095 -1.86361e-18)
(6.25394 -1.32425 -1.0591e-19)
(6.33089 -1.27367 0)
(6.48426 -1.25041 9.53961e-21)
(6.49777 -1.17067 -2.24878e-20)
(6.98148 -1.24506 6.65523e-20)
(7.06189 -1.208 -2.34038e-19)
(7.86168 -0.66069 -1.52179e-19)
(7.78234 -0.662517 1.50621e-19)
(7.89909 -0.571684 0)
(4.23184 0.645237 -4.48001e-21)
(4.17263 0.596826 -2.17524e-18)
(3.6794 0.377892 5.50887e-18)
(6.53086 -0.938473 6.03627e-21)
(6.50787 -1.02239 0)
(6.60222 -4.33427 2.56216e-19)
(6.67155 -4.35603 -2.51074e-19)
(5.97542 -4.06399 -3.22781e-18)
(5.99619 -4.0996 1.61718e-18)
(5.28897 -4.12889 -7.79634e-19)
(5.15354 -4.04539 -7.00992e-19)
(7.66978 0.91684 4.95281e-19)
(5.6608 -3.59473 -1.39519e-18)
(5.52682 -3.53439 1.17083e-18)
(6.58509 -0.661753 -3.70924e-17)
(6.62229 -0.750237 -2.55704e-17)
(4.18603 -2.70868 3.70956e-20)
(4.08183 -2.69521 0)
(7.99735 -0.90068 7.80425e-19)