/*--------------------------------*- C++ -*----------------------------------*\
  =========                 |
  \\      /  F ield         | OpenFOAM: The Open Source CFD Toolbox
   \\    /   O peration     | Website:  https://openfoam.org
    \\  /    A nd           | Version:  6
     \\/     M anipulation  |
\*---------------------------------------------------------------------------*/
FoamFile
{
    version     2.0;
    format      ascii;
    class       volScalarField;
    location    "400";
    object      nuTilda;
}
// * * * * * * * * * * * * * * * * * * * * * * * * * * * * * * * * * * * * * //

dimensions      [0 2 -1 0 0 0 0];

internalField   nonuniform List<scalar> 
29874
(
0.252557
0.208179
0.121568
0.155392
0.178877
0.242411
0.217294
0.141058
0.152901
0.141856
0.269198
0.25906
0.18283
0.263934
0.266002
0.283721
0.176162
0.276337
0.118827
0.141926
0.140659
0.143783
0.140515
0.153406
0.144497
0.176977
0.218619
0.143879
0.234259
0.233919
0.228829
0.195333
0.193479
0.22105
0.151399
0.158027
0.142217
0.162901
0.164033
0.200564
0.139897
0.13965
0.14518
0.133094
0.190951
0.160425
0.17874
0.245714
0.239901
0.240629
0.194103
0.290619
0.267539
0.278811
0.198341
0.191969
0.134851
0.169844
0.166084
0.172028
0.163774
0.149101
0.147476
0.167416
0.123466
0.189824
0.23862
0.176462
0.262525
0.284081
0.154937
0.148349
0.144379
0.109379
0.284914
0.228761
0.23081
0.22514
0.183053
0.16456
0.192302
0.113014
0.138246
0.146715
0.0947751
0.108892
0.148793
0.140876
0.187549
0.162709
0.0693055
0.139464
0.138527
0.144721
0.13346
0.138156
0.135529
0.0977232
0.0603074
0.109557
0.150891
0.138554
0.138741
0.167568
0.211656
0.0622932
0.0746719
0.154379
0.158829
0.14377
0.0739689
0.195251
0.20461
0.138442
0.138449
0.138737
0.134422
0.150447
0.000229645
0.142221
0.139735
0.178342
0.129497
0.11674
0.135499
0.138534
0.15263
0.146938
0.14204
0.134798
0.140009
0.136791
0.150215
0.143198
0.143557
0.143263
0.146244
0.134189
0.143876
0.234238
0.200595
0.171914
0.279115
0.169547
0.149495
0.152054
0.170751
0.182875
0.139764
0.276184
0.246074
0.239863
0.294618
0.124507
0.135838
0.140082
0.150029
0.161716
0.183355
0.184876
0.166661
0.180955
0.222332
0.163134
0.216351
0.190361
0.171989
0.149985
0.149133
0.154275
0.194188
0.173084
0.164492
0.0917037
0.0800599
0.154874
0.147711
0.000399994
0.147644
0.144835
0.000305349
0.000285307
0.160439
0.14298
0.140789
0.159001
0.138297
0.138616
0.140706
0.138546
0.138423
0.190455
0.144662
0.139186
0.170652
0.14325
0.14183
0.154978
0.000581775
0.000617822
0.152273
0.150934
0.176757
0.163686
0.140993
0.138871
0.140566
0.216562
0.146406
0.139705
0.142423
0.145679
0.133643
0.141557
0.143048
0.14578
0.145242
0.141903
0.14579
0.152759
0.235769
0.197408
0.197857
0.162251
0.139656
0.146004
0.151423
0.149341
0.161428
0.139013
0.139964
0.140002
0.137376
0.131277
0.144292
0.146319
0.135103
0.170858
0.159157
0.196199
0.198941
0.00643904
0.0406838
0.101494
0.107398
0.0370647
0.0349173
0.0952901
0.131575
0.0821498
0.0815919
0.12688
0.0925789
0.0599835
0.103059
0.0503346
0.0695884
0.000355764
0.0805123
0.0693956
0.065116
0.0604877
0.0706788
0.0836712
0.0905809
0.0847653
0.0884351
0.11535
0.111766
0.000307966
0.042062
0.0396835
0.103719
0.0947988
0.108484
0.079158
0.0489706
0.000921662
0.103617
0.104175
0.102115
0.126508
0.126353
0.121817
0.121537
0.12286
0.125078
0.125232
0.0512593
0.054876
0.0839485
0.0875648
0.0889994
0.0922806
0.0957802
0.0713088
0.0713253
0.057531
0.0978001
0.0974144
0.103758
0.053023
0.117213
0.0461795
0.0907767
0.0885813
0.0448523
0.127342
0.0522728
0.0066714
0.0832205
0.0837574
0.0524502
0.0558693
0.0490948
0.0659102
0.0666274
0.0969587
0.114019
0.111825
0.0896917
0.096329
0.0400028
0.0445205
0.110322
0.108223
0.110994
0.138274
0.0708102
0.0711239
0.135851
0.136316
0.0662796
0.064116
0.0876174
0.070196
0.111191
0.112663
0.112819
0.111179
0.0403069
0.0445707
0.0427412
0.0467255
0.0448824
0.0446003
0.116202
0.116282
0.0908987
0.0897918
0.128125
0.123879
0.0891685
0.0914413
0.0907401
0.10503
0.0518056
0.0521274
0.107875
0.000232563
0.0891496
0.0276795
0.0927675
0.0440927
0.0430988
0.0875
0.0884152
0.0860138
0.132081
0.0595575
0.0550403
0.0586394
0.0552715
0.139458
0.13084
0.0618003
0.0696825
0.0678553
0.0620064
0.0718653
0.0386136
0.0386132
0.120331
0.130989
0.110335
0.110274
0.117857
0.113447
0.115027
0.112211
0.0964452
0.0971269
0.0369291
0.0936805
0.0921119
0.0873431
0.0852802
0.0880374
0.0841611
0.13791
0.0872748
0.0896162
0.0905277
0.12655
0.122398
0.130206
0.0464801
0.0494364
0.0464474
0.0490072
0.0889143
0.0813173
0.0845952
0.0863428
0.136654
0.0334356
0.0432106
0.0410692
0.0372794
0.0444385
0.0440728
0.0414827
0.0809883
0.0690317
0.0857262
0.0821088
0.0802998
0.0880043
0.10278
0.102523
0.0791155
0.0791777
0.0830836
0.0756278
0.0623084
0.0813634
0.0727537
0.0576761
0.0662866
0.0681591
0.0760464
0.0701375
0.0729823
0.0515044
0.048142
0.139314
0.139986
0.137901
0.136582
0.140362
0.0511585
0.0543634
0.0483568
0.0788069
0.0894293
0.0837513
0.0769182
0.0787972
0.0813575
0.0750523
0.0951639
0.0925142
0.0948649
0.0918998
0.0661743
0.0664732
0.0628877
0.0765717
0.15069
0.143615
0.147233
0.147767
0.0646324
0.113173
0.104645
0.103574
0.107047
0.0480144
0.0442726
0.0517168
0.0967312
0.0600496
0.0663785
0.0636541
0.0624072
0.138048
0.0423757
0.0398383
0.039538
0.042297
0.165982
0.000221833
0.137368
0.194
0.000684638
0.138562
0.167945
0.139509
0.139453
0.139501
0.17006
0.113947
0.137886
0.138655
0.111439
0.134523
0.132751
0.138315
0.136471
0.119264
0.138383
0.13801
0.115959
0.138577
0.138332
0.00592646
0.139117
0.142284
0.000210875
0.138412
0.138723
0.140485
0.114852
0.139793
0.117071
0.119089
0.135034
0.139273
0.131713
0.134027
0.126691
0.152151
0.128448
0.124005
0.132927
0.128722
0.13884
0.130356
0.127257
0.121424
0.103337
0.102062
0.00022053
0.00816938
0.157176
0.165972
0.138518
0.10487
0.10741
0.139183
0.133969
0.13977
0.139541
0.138305
0.0915354
0.0913226
0.0920536
0.123367
0.13915
0.224039
0.125942
0.109547
0.104753
0.105992
0.138665
0.0143516
0.131088
0.132505
0.100098
0.106084
0.0378818
0.148962
0.140511
0.235216
0.20314
0.138292
0.13854
0.138368
0.0949997
0.158407
0.146559
0.128178
0.126328
0.145549
0.118614
0.120353
0.111284
0.139816
0.126767
0.136802
0.133368
0.158905
0.147893
0.0740624
0.0685502
0.118266
0.119726
0.143177
0.140082
0.000808894
0.149694
0.18187
0.142172
0.140284
0.139903
0.139281
0.13981
0.126374
0.134016
0.138758
0.0551483
0.0549703
0.058701
0.138997
0.138038
0.138274
0.137831
0.139848
0.143536
0.147788
0.117788
0.0368811
0.139366
0.138007
0.145454
0.153558
0.0492216
0.0446263
0.121679
0.118571
0.161074
0.218884
0.159112
0.177394
0.0933273
0.0910573
0.110121
0.113967
0.117391
0.0844485
0.0907097
0.137667
0.137491
0.137213
0.170485
0.14102
0.138768
0.138549
0.133777
0.135588
0.139143
0.138619
0.13241
0.132857
0.130788
0.139718
0.136956
0.145767
0.149322
0.000548815
0.00674405
0.116532
0.112897
0.122044
0.0626948
0.0584724
0.168013
0.170275
0.158095
0.00730278
0.00884955
0.127242
0.0667254
0.135456
0.0571511
0.124462
0.0310535
0.0558067
0.0609133
0.0957509
0.0947975
0.113394
0.0886375
0.0890991
0.0933855
0.0942238
0.123283
0.0769477
0.0988123
0.0579223
0.075746
0.110005
0.109526
0.101453
0.101604
0.114445
0.0499123
0.00400082
0.0290561
0.0051423
0.00317074
0.0687528
0.0960841
0.0966216
0.100239
0.0430979
0.0954216
0.0240416
0.107375
0.0437312
0.123592
0.0724489
0.0709121
0.0608069
0.0726143
0.0855572
0.0283525
0.0344994
0.113242
0.0531435
0.0604331
0.0623398
0.0929911
0.105272
0.0732391
0.102084
0.095751
0.0457525
0.103195
0.103601
0.108793
0.108676
0.0959335
0.095521
0.045655
0.0907871
0.0897648
0.0213712
0.123468
0.0467569
0.00169275
0.0639398
0.10772
0.0820365
0.00166804
0.00121822
0.112561
0.0729156
0.0259322
0.00540836
0.0903911
0.0911216
0.103221
0.0607308
0.0619266
0.0890527
0.108582
0.0705369
0.0371803
0.0388646
0.0922238
0.125558
0.12572
0.0558991
0.0514302
0.0567825
0.0559914
0.0958659
0.107112
0.0719535
0.0768785
0.0343884
0.105355
0.0232292
0.0528591
0.0557942
0.0878335
0.0965742
0.0773213
0.115713
0.0739198
0.0796071
0.120101
0.0764841
0.0738094
0.124227
0.0890053
0.109118
0.12325
0.0697707
0.0697851
0.0677744
0.085805
0.0871307
0.0783902
0.0176982
0.0660443
0.00151449
0.0474677
0.096156
0.104661
0.0903041
0.0868153
0.0707325
0.0630514
0.0637041
0.121928
0.0173735
0.0918978
0.101878
0.115959
0.118303
0.118216
0.0660657
0.0669554
0.105946
0.0795985
0.0830288
0.0583765
0.10422
0.126601
0.109326
0.0182285
0.0556256
0.0468278
0.0801472
0.0976491
0.101107
0.0960451
0.0979227
0.0358723
0.0386285
0.10856
0.0557167
0.0566099
0.106514
0.103197
0.0721122
0.0592117
0.0581903
0.085057
0.0913099
0.094777
0.0330855
0.124638
0.126252
0.125954
0.102072
0.0984983
0.0899134
0.0855467
0.104815
0.100418
0.100477
0.0322814
0.0309389
0.0303887
0.0989091
0.117897
0.114543
0.121642
0.110439
0.0838435
0.0858531
0.100561
0.0921459
0.0889839
0.0968111
0.0626462
0.060138
0.120208
0.0940297
0.0715262
0.12705
0.0783023
0.0751985
0.0628169
0.0686303
0.0508595
0.091866
0.0863589
0.0198823
0.0860941
0.0605485
0.0853945
0.0834539
0.0928656
0.0896764
0.0828235
0.0843545
0.0571577
0.0863207
0.0879768
0.0838879
0.0833712
0.0847825
0.0934921
0.101556
0.019396
0.0674887
0.0821198
0.083354
0.0370027
0.0358399
0.117625
0.0711765
0.0857082
0.0918398
0.0872576
0.126382
0.0559075
0.0923977
0.0795769
0.0269761
0.0794835
0.103638
0.0949535
0.0944053
0.0943257
0.108048
0.0989573
0.0372384
0.104111
0.106121
0.0823862
0.0947736
0.0886059
0.0605265
0.0518996
0.101579
0.0778991
0.0605366
0.0355519
0.0377404
0.00693464
0.0902546
0.0892984
0.0932531
0.0225704
0.0862533
0.0860783
0.111722
0.0860084
0.0714762
0.0685373
0.114933
0.0923779
0.0654996
0.041672
0.0943062
0.125986
0.105476
0.0808669
0.0742457
0.109558
0.109529
0.110426
0.117198
0.0321498
0.105683
0.100879
0.0168764
0.100468
0.0479653
0.0658421
0.062146
0.103533
0.108741
0.0536146
0.0520777
0.0660052
0.00818464
0.0816819
0.0453637
0.0351597
0.0290156
0.0764703
0.115882
0.0686885
0.0699881
0.0680451
0.0690885
0.111123
0.109835
0.107235
0.107101
0.0949835
0.0931197
0.073067
0.0755574
0.07209
0.0753329
0.0731831
0.0564785
0.107197
0.107272
0.0967833
0.100748
0.068408
0.0689658
0.0196474
0.0152674
0.0845149
0.0590279
0.0541605
0.115475
0.109401
0.0661071
0.0624197
0.0666659
0.0315867
0.0299913
0.0712396
0.0904476
0.0957107
0.100837
0.0579147
0.0958317
0.0910513
0.101294
0.100666
0.0994597
0.0991676
0.105739
0.10306
0.104096
0.0924988
0.0460505
0.0480638
0.0412215
0.076432
0.0862642
0.085377
0.0571207
0.0665079
0.127363
0.12744
0.127294
0.0713315
0.0788202
0.0799539
0.0766442
0.0740638
0.104048
0.104212
0.0598552
0.0994988
0.10157
0.0984816
0.10031
0.057794
0.0559075
0.111043
0.11
0.10989
0.111057
0.0960175
0.0977214
0.0954868
0.0885636
0.0956474
0.1152
0.0798376
0.0671091
0.00117268
0.106221
0.0622316
0.0617575
0.101562
0.100215
0.102068
0.11988
0.118586
0.119451
0.0398834
0.0758151
0.0737022
0.0770308
0.0803975
0.0800452
0.0788505
0.0804521
0.0913266
0.092884
0.117627
0.0137023
0.119444
0.0498137
0.0922989
0.0843558
0.070772
0.122127
0.0289688
0.100241
0.100327
0.0749121
0.0663847
0.0638365
0.0689256
0.0855122
0.10629
0.10329
0.0880673
0.0841258
0.0590842
0.0600081
0.0564764
0.0467636
0.115755
0.115331
0.0692669
0.0717543
0.082439
0.0654063
0.0612799
0.062583
0.0983202
0.0960106
0.0964109
0.0130597
0.02537
0.000617192
0.112698
0.111367
0.101634
0.0784304
0.00074359
0.0687637
0.0667989
0.0893006
0.0722725
0.07523
0.0742732
0.0732726
0.115463
0.117243
0.0957805
0.0982682
0.0744755
0.0724485
0.111685
0.0302818
0.0766492
0.0792927
0.000537708
0.114337
0.113726
0.114657
0.108274
0.0584648
0.0553186
0.0598205
0.0231655
0.0512982
0.0485711
0.113915
0.113028
0.128064
0.0929964
0.092905
0.0922295
0.10009
0.0986826
0.0990265
0.0398178
0.111555
0.110793
0.0875541
0.0859691
0.0868266
0.000499526
0.0511352
0.105718
0.102592
0.103426
0.101537
0.102088
0.102935
0.111764
0.111327
0.0523567
0.0459943
0.108308
0.000949783
0.125498
0.124758
0.103147
0.10406
0.102406
0.00110262
0.0929207
0.0878488
0.000422909
0.000824421
0.00222891
0.124114
0.124194
0.12357
0.09428
0.0648829
0.0702737
0.0956199
0.124832
0.0770416
0.0774277
0.0757903
0.111786
0.11104
0.0687474
0.000731033
0.0990454
0.0997393
0.100957
0.0968056
0.0364058
0.0358773
0.0916893
0.0921501
0.0913307
0.0925339
0.0922533
0.0949167
0.0873419
0.000469642
0.0547522
0.0308347
0.106596
0.103735
0.0329759
0.0295763
0.0641106
0.0634855
0.0678889
0.111419
0.112023
0.110188
0.105516
0.106593
0.0646352
0.0585342
0.0988456
0.00072826
0.000353249
0.115211
0.0689107
0.0680742
0.0236136
0.0240662
0.0827666
0.0619263
0.0590719
0.0605467
0.106131
0.102432
0.102234
0.0995848
0.0358089
0.110959
0.0356117
0.127338
0.127075
0.103174
0.102272
0.0713274
0.0674019
0.000403175
0.000764067
0.0974964
0.120859
0.120925
0.000364521
0.125433
0.126086
0.104685
0.0897816
0.0855952
0.087319
0.120149
0.0901174
0.0939975
0.0947013
0.0956398
0.095617
0.0646287
0.0236093
0.0921946
0.0936243
0.0940663
0.0916478
0.0782837
0.0762586
0.10161
0.106787
0.105736
0.104496
0.121666
0.09393
0.0954751
0.00100879
0.00253714
0.101977
0.104519
0.103992
0.102076
0.0704324
0.109754
0.118587
0.118921
0.101608
0.0764319
0.0770495
0.0393484
0.0362026
0.0382653
0.0369534
0.111925
0.107235
0.105678
0.107576
0.0943094
0.0961238
0.0947786
0.0955761
0.0701864
0.0728412
0.0734979
0.0696906
0.064746
0.0691368
0.0648114
0.000783728
0.00138112
0.0612375
0.0621803
0.0842483
0.0818112
0.0831373
0.0830249
0.0491485
0.0537658
0.112599
0.114649
0.107513
0.0697647
0.0893727
0.0917558
0.101164
0.100391
0.102229
0.100132
0.115122
0.115604
0.073672
0.0728082
0.083716
0.084729
0.0741012
0.0719599
0.0720922
0.0738942
0.0903691
0.0907137
0.0899855
0.090987
0.0346826
0.020595
0.0865155
0.0885524
0.0883234
0.086586
0.0873619
0.100595
0.100203
0.103431
0.00163748
0.0514006
0.0493115
0.0556064
0.0813002
0.0816875
0.0786749
0.0879209
0.0924911
0.071615
0.074426
0.0949488
0.0982647
0.0937348
0.0722245
0.0740085
0.073996
0.0719164
0.106961
0.106876
0.105862
0.108065
0.0816506
0.078777
0.0819598
0.073831
0.0754053
0.0747458
0.0991445
0.100788
0.100821
0.0989792
0.120398
0.119712
0.120462
0.110705
0.107889
0.109112
0.113293
0.0908369
0.0904704
0.0909476
0.0903973
0.102937
0.101883
0.100999
0.1037
0.0643259
0.0714814
0.074248
0.0739369
0.0758502
0.0749497
0.015263
0.0157097
0.0922341
0.0599289
0.0364989
0.0411692
0.0789242
0.0768538
0.043319
0.0558606
0.0908358
0.088225
0.0654611
0.0674447
0.136972
0.137216
0.0326489
0.0945635
0.0913708
0.0949422
0.0979004
0.0947889
0.0388554
0.0862442
0.0851736
0.0386345
0.0457476
0.0957755
0.119505
0.118664
0.119348
0.118898
0.0147969
0.0144868
0.100831
0.0976468
0.100104
0.0977337
0.0480365
0.0708811
0.0975118
0.0143817
0.0949405
0.0921271
0.0955762
0.097668
0.0961126
0.0490721
0.0446687
0.0504128
0.0982245
0.0963248
0.0823575
0.0789165
0.0802808
0.10305
0.104709
0.104252
0.103438
0.116736
0.118065
0.117739
0.0359015
0.0351571
0.0765163
0.0751702
0.0747626
0.0950111
0.0986663
0.113189
0.113013
0.113533
0.112597
0.090987
0.0851088
0.0877083
0.0880969
0.0564755
0.0625135
0.0603494
0.103163
0.101478
0.102032
0.102724
0.0645635
0.0635866
0.0650259
0.0630652
0.126904
0.12689
0.127083
0.0989222
0.0987124
0.100713
0.105174
0.105364
0.106099
0.104375
0.0267415
0.0236152
0.023123
0.0278727
0.0544674
0.0760875
0.0716151
0.0711316
0.0904005
0.0920317
0.0914133
0.0766625
0.0735334
0.0759034
0.0728148
0.0741697
0.0745535
0.0265219
0.021991
0.0811174
0.0783708
0.0794313
0.079963
0.0836212
0.0852904
0.0811897
0.103191
0.118642
0.0856847
0.0879104
0.0802402
0.0790598
0.0787509
0.111187
0.107761
0.136362
0.0747121
0.0747452
0.0723443
0.0852933
0.0829879
0.0849269
0.0793206
0.0782935
0.0800255
0.077474
0.0925133
0.0927904
0.0915825
0.084214
0.08581
0.0878802
0.0623833
0.0607944
0.0543514
0.0591179
0.0587192
0.0696524
0.072371
0.0712414
0.0707738
0.0658151
0.0635169
0.0651945
0.091217
0.0921694
0.0926763
0.0908364
0.0536225
0.0763492
0.0678269
0.0675244
0.0658879
0.113378
0.113366
0.114238
0.1128
0.0836816
0.0855477
0.0859917
0.0833386
0.0736249
0.0723059
0.0767239
0.0106751
0.00969341
0.0110454
0.114462
0.110595
0.109227
0.110165
0.0991498
0.111639
0.11148
0.126619
0.0708435
0.116425
0.107221
0.0877366
0.0910384
0.0905711
0.0884104
0.114292
0.113394
0.0842814
0.0865424
0.0829121
0.0743742
0.0767751
0.0761452
0.0901612
0.0896632
0.0895268
0.0902082
0.041107
0.0404925
0.0421905
0.0392453
0.0453293
0.0395447
0.042279
0.0908556
0.0903589
0.0903278
0.115714
0.115155
0.092442
0.0923932
0.0625941
0.0577822
0.0583812
0.0588716
0.0564524
0.0580824
0.084951
0.086124
0.0887937
0.0877001
0.0872585
0.079767
0.0855013
0.107918
0.108152
0.108175
0.104839
0.106885
0.108088
0.106074
0.108047
0.108575
0.10781
0.0733868
0.0753385
0.0735637
0.0750573
0.0766701
0.0782837
0.0948434
0.0979323
0.0975034
0.107597
0.108013
0.106595
0.0845006
0.0842167
0.0836813
0.0770466
0.0791935
0.0808114
0.0757278
0.0123749
0.0149457
0.0983836
0.0622442
0.0560375
0.0312947
0.0890361
0.0884014
0.0915537
0.00101867
0.0155783
0.10183
0.102639
0.103266
0.122909
0.1234
0.103758
0.0231974
0.0794657
0.0791386
0.0803018
0.0782224
0.117601
0.117073
0.119088
0.0840212
0.0808126
0.0825911
0.120566
0.121193
0.0880534
0.0857112
0.086309
0.087565
0.0999705
0.0982109
0.101424
0.0927934
0.0924451
0.0935328
0.0918
0.0556297
0.0555812
0.077123
0.0716449
0.105829
0.0581819
0.0562004
0.0566064
0.0576615
0.0459009
0.0391983
0.100531
0.0971454
0.0994695
0.0976569
0.10603
0.115667
0.116547
0.0861465
0.10047
0.100181
0.0996439
0.101158
0.0652065
0.0650018
0.0663241
0.0296758
0.0305119
0.105692
0.107661
0.105092
0.0965462
0.0980403
0.0963588
0.0981026
0.0716178
0.0708917
0.0912216
0.0948764
0.0948272
0.0990815
0.0984601
0.09786
0.0724029
0.0766299
0.0751941
0.07371
0.0761431
0.0763422
0.0636394
0.0887489
0.0864884
0.0882878
0.0871043
0.118862
0.117069
0.0628832
0.0608714
0.0963089
0.0977056
0.0977258
0.0962101
0.114903
0.114025
0.114444
0.114549
0.118854
0.0918796
0.0922581
0.0909978
0.0952069
0.0938405
0.0917993
0.0831253
0.0859616
0.107674
0.107621
0.106117
0.108805
0.10246
0.100929
0.101826
0.101644
0.0333557
0.0656423
0.0589316
0.0428058
0.0371528
0.0975812
0.0988876
0.0995197
0.097762
0.0318959
0.00575524
0.0920753
0.0922671
0.0459761
0.0903938
0.0892884
0.0744818
0.0972964
0.0998551
0.0754356
0.0784168
0.0476231
0.0434467
0.0799716
0.103999
0.102574
0.105015
0.125095
0.0849756
0.0814715
0.0836453
0.0893131
0.087158
0.0891057
0.0872426
0.123048
0.124269
0.0599334
0.068356
0.0689901
0.0702509
0.0670214
0.0645973
0.0671539
0.0640326
0.0677193
0.138592
0.0913235
0.0895213
0.091348
0.0892777
0.0512522
0.0718435
0.064387
0.0689942
0.0675887
0.0788778
0.0795109
0.0821427
0.0762627
0.137865
0.138054
0.0919709
0.0942653
0.0945485
0.0347129
0.0319827
0.0560958
0.0957198
0.0938279
0.0939308
0.0955169
0.103121
0.104122
0.0122006
0.063721
0.0621261
0.0575
0.0612574
0.0576845
0.0744001
0.0719685
0.0773764
0.000427433
0.112793
0.113136
0.111946
0.108029
0.0978134
0.122901
0.0873182
0.101726
0.10336
0.101636
0.0945959
0.0952326
0.0907919
0.0931214
0.0911205
0.0766367
0.0986322
0.100097
0.0968385
0.103567
0.104691
0.103286
0.12038
0.114983
0.113305
0.11362
0.114741
0.0476344
0.0458754
0.0486083
0.0452735
0.000173338
0.0930973
0.0952404
0.0949938
0.0666172
0.0649236
0.0695011
0.0318039
0.00709768
0.0954198
0.103045
0.104444
0.11527
0.115211
0.0641702
0.0659531
0.0630232
0.103422
0.104339
0.10275
0.104921
0.108516
0.103107
0.104605
0.104255
0.103421
0.0828853
0.081848
0.0880061
0.0864468
0.0965413
0.0954295
0.0960598
0.095756
0.048918
0.0537957
0.050497
0.0637779
0.06428
0.0625594
0.0654439
0.098903
0.0958559
0.0960014
0.0979522
0.0384935
0.109229
0.107071
0.107501
0.0171693
0.0459344
0.0425555
0.0447801
0.0434046
0.0731456
0.0774352
0.0725479
0.0922115
0.0919457
0.092283
0.0796646
0.0793782
0.0702304
0.0722109
0.0667702
0.0752488
0.108783
0.107873
0.108723
0.107892
0.108324
0.106942
0.107572
0.107756
0.0886869
0.0885001
0.0890415
0.0880722
0.0110282
0.00970954
0.0133343
0.0198589
0.0512964
0.0488856
0.0797458
0.0769531
0.0780093
0.0787415
0.0734147
0.108795
0.108376
0.107659
0.109674
0.120342
0.135634
0.134604
0.134891
0.135089
0.105008
0.107388
0.104756
0.0173755
0.0325654
0.0346027
0.119863
0.120512
0.119581
0.0932386
0.0933042
0.0935839
0.000116747
0.089296
0.0849678
0.0877809
0.109295
0.114265
0.115205
0.114354
0.0621299
0.0627966
0.0634308
0.118024
0.101502
0.103019
0.10158
0.102847
0.000476681
0.093117
0.0890041
0.0921957
0.0885918
0.069701
0.0666372
0.0712705
0.0720942
0.0738757
0.0980833
0.0960415
0.0384013
0.107707
0.106558
0.106797
0.107456
0.114212
0.0944854
0.0956192
0.000750423
0.1211
0.120797
0.0868565
0.0869689
0.0862893
0.0874817
0.0564297
0.0513371
0.0552745
0.0532262
0.0672867
0.07086
0.133144
0.0977507
0.0999454
0.0989477
0.0987848
0.0700496
0.0708476
0.0670618
0.068927
0.0671229
0.0625182
0.0724182
0.0753912
0.0736195
0.0743044
0.00116466
0.0709139
0.0713745
0.0688269
0.0734215
0.110147
0.110315
0.110664
0.0492769
0.044528
0.079447
0.0791095
0.123728
0.0717736
0.0730729
0.137084
0.126519
0.0857944
0.0850051
0.0861493
0.0845271
0.133077
0.138163
0.0463117
0.0133104
0.0130499
0.0275734
0.0606796
0.00811335
0.0143809
0.0146238
0.0284567
0.10016
0.0697713
0.13859
0.0119106
0.00936944
0.00708983
0.00636336
0.138563
0.138419
0.138441
0.138257
0.0126268
0.0910502
0.0889353
0.122056
0.117541
0.127431
0.125282
0.0934486
0.0959733
0.0185622
0.0114487
0.000391707
0.0834191
0.00122435
0.01738
0.000693507
0.0123808
0.010753
0.130619
0.0809146
0.0559078
0.0412577
0.041065
0.000478762
0.139169
0.00695874
0.00674157
0.00805262
0.0963726
0.00631405
0.149238
0.14466
0.00899342
0.138014
0.000181499
0.0251385
0.0230443
0.0104053
0.0188852
0.0245747
0.120673
0.100848
0.0224867
0.137171
0.137285
0.0597059
0.0407439
0.037322
0.0864689
0.0999599
0.135668
0.136276
0.043591
0.0416786
0.12938
0.014804
0.00215902
0.00027103
0.120249
0.118543
0.00178026
0.00825932
0.0413777
0.000665019
0.000298878
0.00636513
0.121173
0.114516
0.117843
0.117649
0.00450437
0.0530172
0.00964225
0.000166523
0.0228646
0.113814
0.117669
0.0438183
0.00959653
0.00614157
0.00568457
0.130398
0.0748434
0.13185
0.129359
0.130707
0.167887
0.0204698
0.0948727
0.00633571
0.00793159
0.0013319
0.112364
0.0082782
0.0345284
0.0162899
0.0476653
0.0446431
0.0451399
0.0330561
0.0200423
0.0206165
0.0218853
0.0185445
0.0233507
0.0459774
0.0121145
0.0124034
0.00215094
0.00395729
0.0345568
0.0193783
0.0176889
0.00539336
0.00622154
0.038416
0.0416634
0.021344
0.0203859
0.0211407
0.00317414
0.0111384
0.0160845
0.00119411
0.000269188
0.000613208
0.0155863
0.000811103
0.0011294
0.000420211
0.00068293
0.00970915
0.00129991
0.072222
0.0337064
0.0765435
0.0253958
0.0096958
0.0122755
0.0623434
0.0313505
0.12415
0.0317298
0.110775
0.0310289
0.103368
0.000887885
0.0092639
0.132765
0.00639446
0.0968143
0.0820895
0.132948
0.132105
0.0487124
0.0138302
0.138309
0.123089
0.124131
0.0267372
0.10764
0.106878
0.131901
0.00558886
0.00744668
0.00478839
0.00842441
0.00919084
0.00839871
0.0129857
0.00537686
0.129693
0.0320773
0.00579353
0.00748673
0.00820487
0.0113162
0.0270485
0.0265129
0.0461743
0.110109
0.0120614
0.000151822
0.137681
0.137544
0.0230698
0.0222615
0.0294055
0.0281985
0.0341645
0.0791992
0.0385901
0.0108577
0.00186863
0.0122182
0.064018
0.0589873
0.105344
0.0977201
0.00505376
0.00533019
0.134089
0.0706872
0.0279657
0.0511225
0.0527691
0.00790755
0.0853359
0.137962
0.0226604
0.0247584
0.0250352
0.136491
0.136835
0.0472565
0.0407978
0.00837638
0.092679
0.0922788
0.0422798
0.0376774
0.0127884
0.0145204
0.134912
0.136129
0.0657105
0.150692
0.143933
0.138539
0.138377
0.0146627
0.107632
0.00885391
0.00829414
0.0863862
0.00919943
0.0107062
0.0110547
0.0273652
0.106293
0.00971132
0.0108404
0.0237527
0.00781067
0.00817029
0.128507
0.0114736
0.031736
0.0113784
0.0587822
0.136692
0.136789
0.00336952
0.114514
0.00113804
0.0364339
0.0989441
0.100555
0.078918
0.0320181
0.0315382
0.0122945
0.0223627
0.0269851
0.0575212
0.0242051
0.228144
0.185025
0.000611488
0.0374914
0.0375672
0.0361498
0.0361999
0.0151574
0.00475944
0.0891198
0.0387329
0.0602914
0.0612128
0.0601149
0.0256891
0.0166749
0.11246
0.121771
0.124976
0.138021
0.138109
0.0456643
0.0333498
0.0453772
0.0464889
0.0484193
0.0986627
0.0920396
0.106733
0.0640156
0.0560815
0.0458468
0.112456
0.0437672
0.0638503
0.0657289
0.0677914
0.0545097
0.0279858
0.10077
0.099501
0.104147
0.138389
0.111081
0.108921
0.130482
0.112774
0.0191049
0.0421233
0.0324186
0.119472
0.117986
0.128188
0.0124764
0.0146434
0.0625306
0.0669059
0.0338213
0.0408296
0.0370885
0.0697847
0.0701697
0.0719322
0.0687502
0.0171547
0.0289855
0.0283673
0.030398
0.0339292
0.136638
0.137027
0.136604
0.137012
0.0163587
0.0161319
0.115225
0.0312441
0.0306485
0.0310757
0.0282873
0.0280593
0.0314946
0.0340935
0.0336959
0.137718
0.136036
0.135472
0.0969096
0.0818234
0.0795888
0.136166
0.0441432
0.0406256
0.0144396
0.10177
0.275658
0.214004
0.239954
0.0937285
0.0912782
0.09172
0.0340661
0.0333595
0.0302919
0.00208117
0.214153
0.0185074
0.0814142
0.0867408
0.0851534
0.0827375
0.00333943
0.135875
0.136451
0.0137973
0.0514657
0.116932
0.138782
0.138819
0.112818
0.113675
0.000210421
0.0564036
0.0958798
0.0944245
0.0942034
0.095258
0.000319087
0.111557
0.116703
0.110173
0.13714
0.136757
0.0589099
0.0460636
0.0485982
0.0291249
0.0434689
0.0776719
0.07846
0.0766599
0.093358
0.000455122
0.112197
0.110064
0.0166233
0.00366459
0.10422
0.109488
0.121881
0.117879
0.0639507
0.0631064
0.020284
0.133346
0.0569735
0.0572139
0.0592283
0.0594953
0.19673
0.186411
0.0666558
0.0647587
0.0619997
0.0103576
0.0128871
0.0315146
0.0342551
0.0361945
0.0616081
0.0418711
0.0700826
0.0686394
0.0602178
0.116777
0.119591
0.00196035
0.0548385
0.0705305
0.0713478
0.0731953
0.0365477
0.0407148
0.104872
0.138406
0.014198
0.0783583
0.0853627
0.0831896
0.122505
0.122059
0.014777
0.135043
0.0234226
0.00839462
0.0935325
0.0955481
0.0963932
0.0908902
0.0894506
0.095427
0.101047
0.0501198
0.0486661
0.0214736
0.0225069
0.0284292
0.0255536
0.0172041
0.0140815
0.0162056
0.0500671
0.0631326
0.0336128
0.00407919
0.10628
0.0602172
0.0596636
0.0617008
0.0131763
0.0323717
0.124776
0.123642
0.082499
0.0831768
0.0822804
0.025408
0.0807752
0.0112676
0.00122243
0.13881
0.0902393
0.0460349
0.0433961
0.0467738
0.0480651
0.034381
0.000620972
0.140655
0.0847743
0.0901875
0.0199953
0.0255594
0.117902
0.0551618
0.0527889
0.0160436
0.0957728
0.0605585
0.00727268
0.114916
0.110422
0.0980691
0.0988699
0.105617
0.00197926
0.0071956
0.0586519
0.0184037
0.0492795
0.0534727
0.0431952
0.0434314
0.0531139
0.0536384
0.0586015
0.0191496
0.0196878
0.118496
0.114884
0.138802
0.138729
0.0920905
0.0902891
0.00861936
0.0551793
0.0502981
0.0201597
0.0208738
0.0682902
0.0661037
0.0141495
0.0439308
0.0390163
0.0674511
0.0706456
0.120032
0.117393
0.0957255
0.138422
0.138287
0.0783517
0.076727
0.0693725
0.0687509
0.0552512
0.0513208
0.104877
0.0315827
0.034564
0.0667307
0.0680744
0.0691825
0.0685678
0.0877116
0.0860809
0.0825049
0.0820144
0.0807185
0.108345
0.109171
0.109569
0.0407458
0.0410094
0.126475
0.134574
0.135169
0.01671
0.0102714
0.129562
0.127166
0.0419118
0.0659355
0.068125
0.0677384
0.105686
0.136383
0.14483
0.00347109
0.055363
0.0566187
0.0728545
0.11742
0.0348623
0.139091
0.140666
0.0965087
0.0326963
0.0342014
0.0920143
0.0933203
0.089321
0.088212
0.0954958
0.0939667
0.0261873
0.0231681
0.0794736
0.079609
0.139207
0.139142
0.139297
0.116053
0.071959
0.116394
0.0571468
0.0617712
0.0719317
0.0689554
0.0232184
0.0634263
0.0621546
0.106176
0.107703
0.0482635
0.119425
0.0449889
0.027557
0.138332
0.138123
0.10255
0.10751
0.105995
0.106168
0.1067
0.0262044
0.0293068
0.110628
0.0618453
0.0647675
0.0682311
0.154605
0.16616
0.0851141
0.137843
0.137516
0.0478316
0.0480574
0.138465
0.102988
0.104556
0.103904
0.0556838
0.0569121
0.0601047
0.0641375
0.0634207
0.061981
0.134326
0.00538245
0.071412
0.0720982
0.0703405
0.0839007
0.0329189
0.112006
0.108452
0.104979
0.0725743
0.0692508
0.0712417
0.121593
0.116841
0.112121
0.121109
0.12251
0.121744
0.133271
0.134542
0.134047
0.089848
0.0812179
0.0713202
0.0724536
0.0216602
0.0194138
0.0222776
0.116
0.102075
0.108494
0.11355
0.0802759
0.138792
0.130534
0.128463
0.0409384
0.0442287
0.095915
0.0985833
0.0908304
0.0898762
0.0889193
0.121649
0.124079
0.117647
0.0900582
0.0904069
0.0912203
0.12385
0.124689
0.125727
0.0764879
0.0729228
0.136759
0.137103
0.137292
0.096584
0.0935885
0.0930729
0.128967
0.130001
0.106157
0.107366
0.0190456
0.0940596
0.0938642
0.0664083
0.0658691
0.0314006
0.0341529
0.064639
0.0679807
0.068681
0.123511
0.202086
0.256393
0.0576919
0.00397321
0.0666062
0.00115595
0.0862675
0.0872454
0.0715947
0.0218791
0.132951
0.137969
0.138049
0.122726
0.123751
0.0650321
0.0627903
0.138471
0.127641
0.127504
0.016935
0.1362
0.137146
0.137538
0.113708
0.112611
0.13176
0.107017
0.104902
0.126716
0.122879
0.131249
0.131379
0.0562979
0.0568472
0.0843371
0.0864034
0.0204975
0.0960299
0.10099
0.181011
0.153331
0.0970639
0.0970502
0.117783
0.111279
0.125734
0.125875
0.154782
0.141591
0.141679
0.0538839
0.0518273
0.0522804
0.0686734
0.0684419
0.0155488
0.13455
0.140368
0.127308
0.0927196
0.0922356
0.075434
0.0751993
0.116633
0.11812
0.118429
0.0617016
0.0651139
0.0778608
0.0787448
0.108822
0.109155
0.0345564
0.037993
0.103743
0.10217
0.0514079
0.0526554
0.0552756
0.10761
0.111967
0.106747
0.0259495
0.0919004
0.0896839
0.0899903
0.0573485
0.0574794
0.0557138
0.0646215
0.0679486
0.150826
0.0372154
0.0405883
0.0742381
0.0747382
0.0726673
0.0727434
0.0736787
0.0787863
0.0763518
0.0742454
0.0771789
0.0744622
0.0394999
0.0406562
0.0598938
0.0618415
0.0625936
0.081486
0.0857585
0.0332242
0.0502199
0.0527527
0.0257576
0.0234672
0.0257877
0.000902344
0.137213
0.13636
0.135569
0.138236
0.138514
0.124183
0.0178777
0.0160182
0.0121681
0.0141245
0.0597154
0.07314
0.0685341
0.062911
0.0778096
0.0782742
0.0662781
0.0614683
0.0593877
0.29378
0.245606
0.0314584
0.139005
0.143676
0.0600703
0.138094
0.0415766
0.0438776
0.226421
0.205574
0.1801
0.138041
0.138248
0.138509
0.13842
0.112944
0.0376066
0.13334
0.1328
0.114297
0.126386
0.125006
0.0785107
0.0834075
0.0831289
0.00638489
0.00795056