/*--------------------------------*- C++ -*----------------------------------*\
  =========                 |
  \\      /  F ield         | OpenFOAM: The Open Source CFD Toolbox
   \\    /   O peration     | Website:  https://openfoam.org
    \\  /    A nd           | Version:  6
     \\/     M anipulation  |
\*---------------------------------------------------------------------------*/
FoamFile
{
    version     2.0;
    format      ascii;
    class       volScalarField;
    location    "400";
    object      p;
}
// * * * * * * * * * * * * * * * * * * * * * * * * * * * * * * * * * * * * * //

dimensions      [0 2 -2 0 0 0 0];

internalField   nonuniform List<scalar> 
29874
(
2.93021
0.136174
0.407108
-2.69237
0.17506
-4.61923
-1.15884
0.962557
2.79966
0.791215
-2.44119
-0.0674671
-2.06497
-0.293383
-2.19199
-4.39143
-2.97288
-3.30616
0.620272
0.231682
3.46212
-1.57547
1.41671
1.13426
4.00694
-0.765512
-2.09571
0.38136
0.378379
-2.62229
-2.45078
-3.34712
-0.593886
0.895783
2.96303
1.51697
2.99595
-1.58683
1.31163
-1.17499
1.21284
1.38138
1.62778
3.41167
-2.37079
1.68189
0.926654
-0.905199
-3.02134
4.16909
-0.31783
-2.45375
-4.12203
2.6436
-0.313172
-0.797855
-0.419556
1.09838
2.0363
-1.99147
-0.494998
2.374
1.71342
6.349
0.482977
1.10267
0.25727
1.07228
0.547071
0.470931
-1.79117
-1.30781
7.81048
0.726033
1.2926
-2.66911
-0.937002
-2.39827
4.55639
2.56422
-3.06125
-0.443125
1.22873
-1.27171
14.5482
12.3781
0.721235
0.522676
-1.76384
-0.982883
18.1836
1.3735
1.43841
-0.667788
0.0565458
3.0915
0.369094
14.394
19.5374
-0.306644
-0.0636786
0.735028
1.16279
4.73008
6.45242
19.3635
17.5778
0.096863
0.607368
0.237049
17.8289
-1.5811
-1.72126
1.32358
1.23416
1.22944
1.82794
1.51148
23.6657
1.87151
1.55134
-3.20934
-0.137243
-0.207925
-0.174918
3.48532
-1.22363
1.48118
1.84451
3.76843
0.950424
2.86742
2.48297
1.35047
0.960749
1.74133
1.23058
-0.198437
-1.37047
3.45571
0.911913
1.45796
-0.665997
5.77282
1.11903
3.07832
-1.04978
2.3179
0.808365
1.89332
-2.08576
-0.784293
-3.27087
-0.274798
-0.625182
1.36062
3.81286
-2.11679
-1.73638
-1.87119
-1.45262
4.38797
7.22306
0.750672
0.553739
0.875584
0.436708
3.33928
3.89443
0.915961
0.686128
0.529344
0.751572
15.762
17.0015
0.669086
0.403031
20.9263
3.88308
3.94895
20.567
20.6126
-1.1907
3.44008
4.19142
-4.16209
0.669774
0.73494
0.0657628
1.14666
1.15782
-4.49085
3.32073
3.43883
3.31395
1.95966
1.64453
-0.19098
20.3714
20.5072
-1.29211
-5.13871
3.47138
2.96511
2.38865
2.89293
2.39672
-5.87971
2.03591
2.12025
2.23728
0.686186
5.06764
3.48694
-1.11345
1.28866
0.526985
0.361605
0.391915
0.612447
-0.644787
-4.28217
-0.273048
2.2735
1.02497
0.749249
-0.100982
0.0825269
-0.321112
1.01953
1.03794
0.983273
-0.0542863
-0.611118
3.34006
3.42807
4.30493
-0.638471
0.32481
-0.669762
-1.88604
22.1528
21.5128
4.94484
2.96272
21.1341
21.3956
-8.39454
2.95364
-6.26973
16.0937
2.43871
-6.07941
14.589
-0.00778834
20.5751
14.5039
22.7018
-6.47653
12.4113
-3.92961
14.3043
14.3859
-3.61471
-4.45295
-6.85176
-6.93846
3.73941
3.9233
24.5379
20.5977
20.9727
-4.10145
-5.10224
-0.668959
5.43425
-6.96051
18.2019
5.14076
-0.714266
-1.74593
0.483446
0.98425
2.69954
2.39516
4.25074
1.51642
1.09438
20.3472
20.1084
6.39954
4.59969
4.65199
-6.29157
-6.94061
13.516
13.1816
-5.12148
-5.2208
-5.50543
-4.90927
15.6797
3.74978
16.1304
4.61652
4.48056
20.299
1.97125
-5.38496
19.9352
-10.4423
-10.2393
-5.78407
-6.50393
-6.18081
13.6183
13.7329
-4.54438
4.20731
4.30629
-5.27126
-12.2574
20.2871
21.2578
4.74131
4.8283
5.083
-0.330801
13.4189
13.3716
3.66493
3.04124
11.5024
11.0253
-9.97001
-5.86718
3.36807
2.77222
2.79959
2.56123
21.1176
-5.73675
21.3512
21.005
21.1041
21.2275
2.48009
2.91628
-11.1329
4.54728
2.40604
-2.96768
-6.4351
-6.12968
-5.95512
0.194403
20.5837
20.2169
8.43513
24.4187
-3.18805
21.0996
-4.76813
21.2204
21.3049
4.52613
4.5328
4.53033
6.23145
19.9825
20.2762
19.4275
19.9539
1.08637
0.496279
19.5838
18.4598
18.3076
18.7008
17.9956
21.2793
21.6489
3.15171
3.0228
3.86406
3.54454
-1.98746
2.46584
2.38201
1.99244
-6.02988
-6.83346
21.9031
-4.47469
-4.30467
-11.0356
-10.4359
-11.4429
-11.8091
3.02667
-6.12039
-6.55476
-5.74838
4.42684
4.37245
3.92285
21.147
20.8309
20.7419
20.6738
15.649
16.8817
16.1284
15.7719
1.98277
15.9652
15.6864
19.2678
19.8153
20.9193
21.1217
21.4231
16.7632
17.8237
15.7852
16.7469
17.6858
16.3017
-1.31078
-0.660781
-4.90925
-5.70398
-5.84221
-5.6393
11.4638
-3.8107
-3.80732
10.0793
11.0957
18.883
18.1679
18.058
17.6743
19.7093
19.7842
1.82363
4.27772
4.31228
4.62169
3.58243
19.9375
19.7187
20.6432
15.2528
14.6688
15.2319
-6.51481
-5.94679
-6.60375
-6.27132
-5.39799
-4.52753
-6.08022
-5.75397
14.6591
14.349
14.6234
5.39493
0.950762
0.810466
0.888725
0.763439
4.20801
11.6629
4.87148
4.82071
4.5273
19.4398
19.752
18.899
-3.54573
19.5588
18.5286
18.8382
18.8588
1.35933
21.2098
21.5854
21.3983
20.8248
-1.76357
24.2495
-4.55318
-2.10014
20.9009
-0.257388
-2.14396
0.80561
0.879459
0.891501
-2.68222
-1.1532
2.77682
2.46318
-0.33938
5.69967
6.27676
4.34909
4.71667
-1.67678
1.66656
1.78369
10.7223
1.24211
1.32951
19.3201
0.812924
-3.87812
23.2535
-0.0138926
1.18271
-0.891154
10.5604
-1.73793
-1.59366
-1.65137
1.41972
0.824568
-1.96595
-2.10481
-2.111
-1.9836
3.47582
3.54033
0.170495
0.235106
-0.168198
4.93921
2.61508
2.65942
-0.340518
-0.449784
23.425
19.029
-1.30038
-1.25778
-1.57823
-0.430571
0.0985755
3.38911
-3.61856
0.97936
1.07423
0.113349
-5.31914
-5.45819
-4.53729
9.34561
0.866549
-4.14594
-2.35284
-0.437602
-0.445584
-0.36624
-0.397471
19.28
-2.89435
-2.63426
14.072
13.2933
21.6091
-3.66971
-0.526608
-6.49942
-4.18063
-0.929178
-0.662007
1.40608
13.8983
-4.21374
-4.85591
7.5868
8.59959
-0.231863
3.20768
3.1924
-0.634082
0.860491
0.826689
0.686834
0.896868
-4.60393
-5.18123
17.6765
18.0127
2.83961
2.40618
3.96959
4.3548
23.4767
0.476748
-3.78297
2.18847
2.35364
2.55945
0.808822
0.869303
1.31633
1.35122
1.24351
18.7932
19.2278
18.8183
2.08129
2.13602
1.99322
2.31515
-5.2547
-4.72733
-4.54216
-0.529831
20.9732
3.98579
3.8327
3.50486
3.84848
18.2635
19.2547
9.37536
10.369
3.26275
0.0400696
2.85784
2.406
-7.12639
-7.06728
12.4889
11.7086
10.9067
16.4711
15.8782
1.97816
2.07204
2.24671
-2.38617
1.65698
1.33619
4.47966
5.23407
4.88957
-0.518201
-0.675641
6.12502
6.21426
6.86759
1.08498
-3.18587
-3.04129
-2.87672
24.21
19.3347
-0.0698972
0.0548928
0.371724
18.9279
19.1628
-0.61477
-1.06179
-0.254134
-16.4182
-15.6015
5.39387
-13.0804
3.2143
13.8408
4.23782
21.4615
15.0059
5.01061
5.82312
5.08735
-11.8774
4.49886
4.53992
4.18861
4.11275
5.22779
-4.20853
-3.0267
15.6771
11.9128
2.85612
2.54938
-13.5269
-13.718
2.02044
-6.76703
23.8506
22.2407
18.4647
18.7439
3.7707
-0.754261
-0.248748
7.75009
15.9859
-0.785615
22.9931
1.10537
16.3182
5.24141
10.3573
10.2262
3.25809
-5.1821
-13.6692
14.9026
15.1123
2.56598
-10.1314
5.28435
5.75117
1.15177
2.36401
-4.37275
0.687944
2.26105
4.79671
-1.18451
-1.45207
-11.7053
-11.0289
-0.735964
-0.242727
-10.5786
4.5192
4.48865
-11.0569
3.79717
-10.0783
-36.9432
6.36552
0.843911
-3.46907
-34.314
-19.181
3.1647
-12.6113
-13.0887
12.9501
7.62726
7.87476
0.750939
14.528
14.6036
4.48197
1.96606
7.58857
21.6967
21.4502
-3.70331
4.79416
4.74474
-12.0427
-12.2562
-7.94521
-7.13513
-3.09582
1.49726
8.81919
8.92505
-0.844621
1.00004
-5.92018
4.18379
3.94873
11.7647
11.1582
-6.20904
3.26088
-3.86378
-3.22192
3.90856
14.3449
14.4378
4.60727
-2.56963
-10.9012
5.54084
-14.134
-13.7253
-13.7908
10.8588
11.3887
-11.244
-26.8756
-12.4069
15.4806
-18.9933
4.39223
3.52141
-3.08767
-4.05463
6.97265
14.2102
14.1541
3.41584
-21.6563
-1.38098
-0.845143
3.12569
4.85333
5.11177
-7.40066
-7.09177
3.33167
10.7108
4.41992
3.57055
0.554611
5.16413
1.21548
22.4318
14.8337
-4.75428
-5.51256
-2.68532
-2.14529
10.931
9.69125
-1.34177
-2.18788
1.54584
-8.65982
-8.47169
-12.9826
-13.1684
3.78146
3.27444
3.16675
4.50671
-4.18588
-3.42715
-0.893156
5.67701
5.99293
5.0631
0.312411
-0.300748
-11.4649
-11.4076
5.38793
-1.44802
-1.39447
21.2504
21.5053
21.2906
-12.3368
5.67229
3.86166
5.85729
4.88052
9.63937
9.73225
-8.61091
-2.64536
4.53012
1.0025
-8.78971
-9.29565
5.28023
-4.31915
-14.0443
3.47022
-3.76554
-3.87563
-12.0045
-12.5731
-19.3167
9.96342
11.6589
16.3995
4.44583
-13.6265
4.45921
4.43685
5.63139
6.646
-5.47219
-5.54572
-5.12255
4.45514
4.55629
4.39023
4.36113
4.45561
-1.40357
7.77463
-21.1703
3.69221
4.633
4.77182
-10.2267
-10.422
3.1748
11.1335
-7.51589
-8.04202
-7.82371
4.88183
14.0132
4.25322
4.21755
-24.2526
8.85939
10.6473
4.08219
4.06029
3.87244
0.721263
-1.92192
-21.6194
-0.353631
0.346449
-2.74111
-12.7955
-12.9042
-2.82525
-19.184
-1.55797
-13.9957
-10.8076
15.5003
15.3054
24.0321
-12.9112
-12.6335
-12.536
21.852
9.23674
8.72378
2.76937
-13.2145
-7.73306
-8.28609
3.6304
-1.05257
8.53335
20.6828
-9.17218
3.64555
-0.813849
6.49302
6.40998
1.62987
1.73508
1.98242
-11.0384
17.3897
0.423865
0.534509
23.6863
1.61607
-4.13463
4.54422
4.63432
-12.8273
9.86987
3.82606
3.80922
12.6966
-4.68461
-3.29269
9.67589
-8.30222
-7.57892
4.27271
4.33971
12.8349
12.9262
13.2474
8.91541
2.62745
1.68482
0.349351
0.575638
-3.41883
-3.89353
-7.38925
-6.28202
-6.87531
10.769
11.0848
13.6476
0.479814
0.749036
-13.5485
-13.3747
-9.8522
-10.4499
-6.32888
-5.47105
-2.05273
-4.89729
-4.29824
3.3551
2.84438
14.5604
15.0642
-8.991
22.1288
17.9475
14.3766
-10.1496
-9.80456
-11.9047
-9.96139
3.5717
4.43276
4.56713
4.62913
4.35693
-7.84047
2.88131
2.94289
3.14062
-3.39399
-4.39273
-5.01735
-4.31822
5.11489
-8.47034
-8.7363
6.94561
15.1921
4.85949
5.50547
4.96983
13.9431
8.59235
8.90349
13.1257
13.3547
-0.397346
0.182527
3.03674
-0.250715
0.166128
-2.44893
-2.39014
14.0041
14.2944
-11.6153
-11.2642
-11.3305
-11.2957
-2.27144
-1.20477
-1.70094
4.56661
-1.88734
4.11593
8.88222
-5.92757
18.9961
-10.4078
15.09
15.4128
3.62142
3.82571
3.64973
2.95859
3.09629
3.65872
21.218
4.7984
4.74305
4.80386
4.46427
4.42641
4.46255
4.33579
-4.1604
-3.8017
5.28273
23.5902
4.25281
-8.76081
4.02313
10.4894
-2.83742
4.30444
-12.5554
-1.5814
-1.52421
-10.8564
9.05558
8.73361
8.85491
4.75487
2.10659
2.27083
5.14913
4.98483
4.83047
4.6544
4.7363
16.247
4.9716
4.54948
-8.02372
-7.40181
4.40088
-7.5641
-7.90453
-7.53691
-2.11325
-2.69676
-1.8626
18.8798
-11.1658
23.3211
3.10619
2.56424
2.89932
4.25059
22.157
12.7336
12.8859
4.51731
11.6932
11.326
11.2472
11.5326
2.26986
2.64231
10.211
10.5224
-13.5867
-13.6797
1.87947
-3.14684
-3.48486
-2.67666
23.5893
3.9616
3.67623
4.02773
1.10254
-9.63357
-9.74858
-9.37014
-9.01439
-13.1789
-13.1951
2.54986
2.2581
4.87723
4.27732
4.32928
4.36519
4.26025
4.10923
4.24185
21.6875
3.02548
2.46904
4.49063
4.49209
4.54046
23.7707
15.8004
0.411697
-1.64531
3.80265
4.16041
3.70447
3.75365
2.99264
2.38682
14.4401
14.7689
4.13059
21.1681
4.89624
4.47731
-8.94005
-9.93713
-9.73773
18.2145
5.90091
5.95338
23.9673
19.0062
18.8463
6.04622
5.72158
5.55983
-1.16976
-5.19061
-4.5572
5.69387
4.14689
12.169
12.4949
12.4558
2.50264
1.71861
14.6672
20.1346
7.24303
-9.33942
-9.30993
-8.34583
21.621
21.7127
4.39104
4.24608
4.4398
4.73275
4.61292
4.64346
9.87866
24.0044
4.68705
20.4113
6.35862
6.50098
-9.32716
-9.89567
15.0475
14.622
4.69308
2.52956
1.98244
1.35214
0.0534065
0.866943
-11.1148
-10.4215
-1.79953
19.6281
24.2418
-11.5965
15.0528
14.5041
-13.2228
-13.031
10.5983
-7.63748
-8.16148
13.8443
1.51656
1.34894
10.5862
10.5407
-8.92972
-12.0235
21.2659
5.17082
5.13739
-1.36639
-1.60787
-11.4921
-11.3836
24.2593
24.2635
-13.0437
4.62372
4.28148
24.3943
4.44006
4.5615
10.0854
-11.07
-11.2778
-10.6391
4.7954
5.2017
5.30901
4.35104
4.26822
4.20821
-8.38782
23.026
4.86955
5.01905
5.06062
5.15744
4.43549
4.29476
2.27052
3.25347
0.131169
0.137136
5.89952
4.45239
4.35224
20.8323
21.3819
-10.7049
-11.0257
-11.6607
-11.7341
10.9597
-11.7341
3.47302
3.55751
-1.83715
12.7269
12.4695
21.1594
21.5399
21.1953
21.1319
2.76376
10.4512
9.79286
9.80283
-3.53381
-3.02737
-2.42995
-2.0398
14.2228
13.3627
14.8837
15.3529
-7.89124
-8.17216
-8.71676
20.3724
20.6578
14.1953
13.7784
10.0531
9.92958
10.3722
10.5965
-16.2018
-6.44333
0.435234
0.401029
-4.76667
-4.48686
6.0246
6.03005
-8.90008
-9.29634
-8.54315
-7.60446
4.2739
4.16007
4.28235
4.32137
4.50012
4.5177
10.557
10.9604
10.5563
9.96794
4.53178
4.4571
4.42658
4.30497
-2.09379
21.6463
4.66163
4.71188
4.63055
4.75568
8.16259
-10.8256
-9.92466
-10.4608
-4.50987
-8.52961
-8.22531
-8.45521
10.1168
9.4112
9.6348
-5.25199
4.25667
-4.34332
-3.1444
-10.1682
-9.86142
-9.57156
11.9077
11.8243
11.9794
-9.58399
-12.5093
-12.1661
-12.5565
-12.171
-11.8292
-11.1447
-11.9007
10.5712
10.7325
10.197
-2.04345
-1.52056
-0.0704435
-0.583133
4.45593
4.51774
4.41329
2.13197
2.19313
1.76895
3.57027
4.39398
4.30825
4.46499
4.50079
-11.9885
-11.7894
-12.5057
-12.3901
-9.28571
-7.00148
-6.30915
11.6315
11.7065
11.3739
-4.23252
-4.8209
-3.5839
12.4822
-5.73983
-6.06404
-6.48319
-6.84008
19.8042
19.1803
11.0813
10.9085
13.3788
13.0452
2.3113
2.12483
-7.98294
-8.3532
-7.50007
-8.04649
-10.8332
-11.3232
-8.68871
-2.16605
-2.52586
-8.43683
-8.90053
-6.74318
3.49009
3.26302
3.83057
3.7094
-26.8972
-26.7255
-9.72807
-9.46745
-8.88904
-9.45539
-10.7709
4.11887
3.8231
-26.5365
11.0721
11.0776
4.98236
4.83314
4.72737
19.9089
19.9108
19.7621
-7.71875
-6.73864
4.95099
4.83896
4.93755
3.577
3.28657
3.24908
3.06346
3.30428
3.42378
3.47104
-9.43838
-9.79352
11.9921
11.8097
12.0528
1.00446
0.772874
2.78752
3.06306
3.45323
2.80671
-9.35149
-9.60357
-9.33097
-8.46584
-6.08163
10.3124
10.2867
-0.25087
-0.898323
-1.55534
-0.932746
14.3111
14.1349
13.7377
13.8558
5.18087
4.88432
5.09439
-1.97557
-0.931837
-0.328281
0.726113
1.00661
0.790872
0.267226
16.6162
17.7179
17.1008
17.3526
15.1723
-6.98342
-7.8424
-7.15154
9.75329
9.86724
9.11516
13.5028
14.0027
-5.60169
-6.41028
-6.21388
-6.10438
-7.39289
-6.41743
5.33537
5.14946
5.24512
5.06661
5.62806
6.00588
5.59733
4.85272
4.48934
4.50454
4.5045
10.1895
10.7439
10.6429
0.970938
0.531238
2.50307
5.25705
5.13333
5.37085
9.04538
9.2405
9.50086
-5.80757
-6.2314
-4.6509
-5.51578
4.33362
4.25156
4.31965
-8.19035
-7.50817
-8.2583
11.7974
11.7078
15.0021
14.9128
14.8273
11.2341
10.6636
11.3828
11.1151
12.3596
12.231
11.9069
4.52046
4.3688
4.52991
4.54584
-10.145
13.9217
10.3555
10.7315
10.1854
-11.7399
-12.0129
-11.3538
-11.2345
-2.3271
-2.10461
-2.95739
-3.21021
13.7777
13.5432
13.088
22.7362
22.7254
22.8055
2.78307
2.39143
2.09274
2.2121
10.0878
6.01638
5.7403
4.05693
-4.1552
-10.9699
0.984671
-12.2831
-12.3047
-11.6388
-11.0501
-11.5274
-11.6037
5.47223
5.45443
5.32312
14.2156
14.2887
13.9467
4.54518
4.50921
4.37967
4.30364
21.5595
21.6723
21.3573
21.6255
-7.13008
-6.91434
-6.41196
4.45945
4.4941
4.46927
4.78913
4.02404
4.17706
4.19337
-9.01075
-9.52575
-8.84388
-8.26929
-8.3509
-8.51269
7.22796
10.4167
9.89668
10.0166
10.2864
-4.74199
-4.95752
2.5872
2.32536
3.5163
-0.331585
-10.857
-10.6778
-10.3596
1.00547
1.92153
0.641039
-7.6928
-7.29359
-6.75834
-6.7547
-11.8483
-12.0571
-10.9718
-10.7955
-10.2262
0.715288
0.477371
-0.383965
4.48933
4.47502
4.47424
-9.79734
-9.17154
-9.77913
-9.87293
-23.0026
-22.2676
-0.256416
-5.7855
15.9271
21.1261
5.7134
5.47535
5.62864
15.0352
-27.4789
0.464207
0.932139
0.428174
6.05294
6.19718
0.629828
18.3647
4.57508
4.48199
4.60744
4.57119
2.21306
1.77392
1.90757
-4.9919
-6.02418
-5.51136
3.06199
3.7292
4.97756
5.04162
4.83423
4.95028
0.150727
0.0197724
0.162385
4.28782
4.34997
4.4364
4.44885
-9.78325
-9.11296
-13.1278
-12.3417
1.43974
3.86464
3.54312
3.92696
3.81293
-8.0897
-7.64965
-10.5877
-10.6279
-11.1278
-11.4044
0.377075
-11.4456
-11.5258
6.44758
3.1143
3.63719
3.80889
3.42297
13.5262
13.6204
13.5621
-6.62044
-6.1613
-11.248
-11.8284
-12.0717
-2.722
-2.24299
-1.28806
-0.764492
5.70634
5.36152
-8.68116
-9.50504
-8.09065
3.98053
3.98245
3.91992
14.3953
14.1328
13.8202
14.2633
12.841
13.1651
5.09566
-1.13554
-1.58688
-2.45575
-2.38362
-2.84699
-2.98297
15.1848
15.3233
-3.59276
-2.5416
-1.98305
-1.96966
4.21745
3.70984
3.96355
4.15162
-2.33481
4.00218
4.13234
-10.1692
-10.4976
-10.4814
-10.7423
-12.1801
-12.5282
1.04201
3.13995
3.58678
3.40902
-0.878965
-1.42529
-1.6721
-1.67176
22.031
15.0121
15.2941
-10.8473
-11.5535
-8.18123
-7.95163
-7.95454
-7.02691
-22.8546
-4.38974
4.40365
4.29229
-18.6869
4.42149
4.49967
-7.77738
5.78404
5.64158
6.22848
6.22287
20.3447
20.6147
4.35008
-10.2121
-9.56832
-10.0854
4.1097
-4.23548
-4.66228
-4.69121
-2.21311
-2.79068
-1.21645
-1.42481
2.8819
2.64128
15.539
-8.09623
-7.7004
-6.93764
-7.53171
14.764
14.4579
15.422
15.6223
3.54318
4.76541
4.76949
4.75157
4.9677
20.4599
-5.50507
-5.28634
-5.16141
-4.24363
-8.09818
-8.99711
-9.55896
-9.43817
1.77297
1.70295
10.6418
10.3402
10.87
-6.99821
-7.00531
-6.04563
-3.02598
-3.31677
-2.05094
-1.84664
-0.515483
-1.16003
22.0318
12.8448
-7.71646
-7.02853
-7.14197
-7.92878
14.6038
14.6676
14.7651
16.9232
3.14444
3.34961
3.08738
1.04769
1.00367
3.85692
-5.41771
-1.25092
0.1591
-0.18295
4.14646
4.15103
-2.94537
-2.37744
-3.53107
-10.0516
-13.7715
-13.5857
-14.1471
-1.02771
0.082376
-0.813375
3.55053
3.30762
3.69544
2.93113
3.30573
20.5453
20.9063
20.8739
21.1845
22.7945
-2.27891
-1.66613
-2.51598
5.46543
5.80558
5.80865
22.1962
23.1545
6.39509
-12.1564
-12.4016
2.40782
2.5463
-13.8314
-14.2046
-13.8252
3.8949
4.10779
4.4623
4.1524
2.21909
-0.778406
-0.557652
0.263122
0.595923
4.60669
4.49328
10.1744
10.1713
4.05458
4.12667
3.84192
4.02249
-8.09963
-7.41225
-8.45356
-8.8619
-8.63249
-8.38472
-7.6782
-7.38249
-6.80523
-8.33398
-7.97092
-8.78263
-12.7944
-13.1263
-12.4997
17.2773
20.9085
21.056
20.4103
20.7043
-10.971
-10.8925
-10.612
4.30983
4.29154
4.25161
4.24838
4.25141
-2.63289
-3.22849
-3.23802
-3.74387
1.04199
0.47737
2.16489
1.86447
1.25187
0.841541
1.08096
1.3599
4.54016
4.54812
4.37568
4.41317
-5.1293
-4.8946
-5.25121
-14.3641
17.6331
17.8833
-2.92075
-3.22524
-3.77596
-3.50256
-7.7044
1.4511
0.767933
1.45312
1.34269
5.41863
5.08246
5.87654
5.44078
4.97848
-11.3873
-10.9222
-10.4892
-11.4795
20.638
20.6206
3.96795
4.00263
3.60298
4.36471
4.29351
4.34989
24.5539
-9.61083
-9.45784
-9.98359
1.67898
-11.8141
-12.0751
-12.2603
13.6502
13.7363
13.4781
-11.6675
-1.42299
-0.819206
0.118696
0.410951
18.958
-8.59638
-8.2204
-7.41044
-8.67939
6.4771
6.41816
6.34133
12.5914
12.4422
-11.9114
-11.928
21.709
0.824275
-0.0439778
1.09791
1.7793
-6.18668
-5.89303
-5.94362
9.80863
1.29417
1.29308
4.5306
4.51831
4.44561
4.41901
19.6627
20.132
19.928
20.3767
15.441
14.1733
-7.1712
-2.25316
-1.61175
-2.03451
-2.17483
12.1103
11.8133
10.9967
10.1643
-6.86654
-6.99563
-3.91986
-3.56003
-4.35634
-4.54899
7.61139
-8.4613
-8.87221
-9.13968
-9.60133
2.06853
2.85895
3.03868
-11.8191
-11.287
9.36505
9.20778
3.98378
12.5752
12.4744
0.911636
5.06742
4.61248
4.59086
4.59644
4.64614
-5.29055
0.475824
-16.7138
23.7871
23.7939
15.0676
-17.8896
23.613
24.0291
23.9829
-23.0468
-0.239823
-15.4783
0.193059
23.6305
22.6191
22.9557
23.1616
-1.48213
0.245983
0.272884
0.336035
24.1368
-3.40725
-2.96469
6.22633
7.10416
-3.76976
-4.17577
-1.00254
-0.711383
15.6258
23.9681
20.9487
-0.758849
18.6373
22.8988
22.8605
19.4947
21.3359
7.02824
4.32983
-16.4402
16.243
16.0363
20.8899
0.673179
23.4983
23.4958
23.5215
-1.64606
23.3506
-3.89597
-4.2686
23.2981
-3.85705
23.1507
-5.1926
-5.52073
22.008
15.0841
17.9389
1.351
-2.93388
22.2654
1.30463
1.08385
-17.4929
16.0741
16.7311
0.815604
-0.836582
0.930315
1.15283
-19.984
-20.4958
7.56576
-22.2758
23.9904
24.555
0.79076
0.501973
20.8013
18.9939
-20.8304
22.0295
23.1077
17.9083
10.0039
11.6042
10.8794
-6.16966
17.7942
4.90216
24.2838
24.4647
22.4306
8.45736
7.78642
16.5787
24.3143
19.8911
19.9873
1.25755
-3.78442
6.15929
7.12068
6.49486
-3.3456
15.5547
-1.32609
24.2192
24.1492
24.1235
6.91365
15.442
22.0707
15.833
16.1536
16.1701
16.1157
22.0332
23.2161
23.1448
23.0038
23.3933
22.9866
16.1636
23.8728
23.8922
20.3771
19.5156
17.1722
23.2539
23.6093
23.0299
22.9821
9.89724
9.93853
22.906
23.0874
23.1526
24.1438
-28.9739
23.5591
16.3357
24.4828
24.4716
22.9867
20.3982
20.2654
21.0265
20.9613
22.5377
20.3347
2.18905
-21.5765
-13.9429
22.8531
-23.5749
-22.7697
-12.3365
21.9955
3.76033
17.4406
-0.82376
22.1796
4.03366
19.6454
23.9274
1.77994
24.2827
0.14853
-0.24856
2.29874
2.59519
15.5649
24.0334
-2.38094
1.18682
1.48757
17.8967
-12.9591
-13.2606
3.09423
24.0813
18.3504
24.3736
24.0859
24.0656
24.0436
23.8724
23.8292
3.93699
22.344
23.82
23.7723
18.3399
18.1778
22.6881
22.7191
1.83775
11.1812
24.1777
24.1938
1.87809
1.91502
22.718
22.6727
21.3016
21.344
16.5251
4.21266
-8.23898
15.3382
16.3906
17.871
-1.62195
-1.64167
-1.03435
-0.319552
19.981
19.6887
2.32481
-13.4758
20.9008
15.8448
15.5905
23.6167
-0.765345
0.503424
15.3654
15.504
17.7772
-2.60546
-2.42244
15.9288
16.0199
23.3953
-3.79238
-4.42673
15.641
15.8233
17.4859
17.4958
2.47465
2.14423
3.25244
-3.27655
-3.74402
0.709771
0.652743
22.2613
-1.09182
23.1528
16.1281
-2.27909
22.8469
16.7096
16.8814
-24.1318
-0.840312
22.0532
22.195
21.3324
18.3375
18.3523
7.506
19.3565
22.2868
19.6115
3.02474
2.65584
2.53574
20.6569
4.16108
19.2158
-21.5717
-2.34871
-1.87307
0.623779
22.2461
22.2965
21.441
-25.3868
17.203
14.6636
22.2817
-3.13484
-3.04118
17.914
21.7122
21.82
21.872
21.9054
-21.7956
23.7264
-5.24551
21.7712
14.409
14.4833
13.8092
22.8411
18.2443
-1.41878
7.38292
6.79974
0.339575
0.421031
-17.5633
22.1589
-17.5313
16.2403
16.2431
7.90663
8.72386
7.75988
-3.96226
-3.85017
-17.6679
-0.488181
16.3482
4.82398
4.82597
4.89322
15.0367
22.4409
-1.88066
-2.49485
-0.812943
-1.76122
0.647614
0.0744541
2.1415
-2.40778
17.0967
-12.1082
-9.75019
1.71344
1.2864
2.78189
19.3473
19.094
3.16813
-13.9176
21.9371
16.0743
16.2976
12.8138
12.472
12.5794
-13.5043
23.641
22.572
22.6048
16.5987
17.1481
2.10387
2.00668
2.46198
2.15745
23.6771
23.6518
-1.99968
17.3851
17.4077
20.2195
20.1976
19.788
21.1671
21.0129
20.7789
1.31061
1.45754
1.62859
6.20686
4.35891
1.1154
3.74439
-8.42784
-8.14724
23.9011
9.37238
-4.68821
-3.64197
-4.08393
-12.5985
-11.9126
4.56417
19.8352
19.3723
19.4191
24.0808
0.298402
18.2523
-12.6209
-12.6762
-12.9281
-12.5685
23.6117
3.37044
3.09805
23.8992
15.635
-4.52197
0.94808
1.05252
-0.586558
-0.497639
24.5617
15.7831
-5.63448
-4.90535
-5.09438
-5.93585
23.7971
-1.8357
-2.08565
-1.66386
1.03932
1.01293
-3.36831
16.2778
16.1403
0.192175
16.4649
-7.45769
-7.17691
-7.48615
0.193781
22.6069
-0.966821
-0.638594
23.2642
20.6539
1.74232
1.40589
7.91283
9.18973
11.5838
11.5217
23.2701
-7.18468
15.3885
15.5815
15.3337
15.5101
0.991655
-0.945312
-4.4627
-4.6541
-5.11864
24.0183
23.982
-7.50181
-7.72781
-7.60469
-13.1766
-11.0533
-12.9456
-13.3913
11.367
-4.35753
-4.15539
23.4396
10.2412
12.9173
12.9451
12.5154
18.7063
18.791
1.55579
-2.18593
23.4457
-4.21824
-4.31335
-4.7143
2.09848
1.47538
23.2679
1.04325
22.1104
22.5023
-3.28403
-3.4005
-2.74674
-8.57728
-7.97169
15.0238
14.3641
16.0306
15.9536
18.3232
18.9123
18.7523
19.2849
19.8117
19.6413
19.4312
15.9035
11.1555
17.2798
19.9039
10.9502
-9.68393
-9.95618
-9.85124
23.7794
17.4385
4.12098
3.87311
4.46997
4.45007
4.45015
17.4745
-11.183
-2.16548
21.1207
0.254926
-4.35232
15.3454
15.1942
15.168
3.60096
22.0876
24.3986
-5.96518
-2.83157
-0.753066
19.7161
19.8006
2.96534
-10.5769
-10.7213
18.9003
-5.19412
-4.40506
19.7422
-1.12755
-1.30766
4.63455
4.75387
-0.757005
15.4013
-23.3437
15.1289
18.4722
20.4214
20.0075
4.95209
4.63541
15.4576
15.3919
14.5666
23.3979
23.3568
0.235335
-0.5482
1.19115
1.22195
5.48601
5.37147
24.351
10.9052
11.1403
23.2616
23.2185
5.16566
5.15444
-6.88724
-3.49183
-3.3264
-0.573232
-0.599326
0.535774
0.341686
12.6531
1.09706
1.10481
-12.5467
-12.3656
14.3565
14.571
-7.99202
-7.54743
-0.0685986
-12.3892
-11.8451
12.4198
12.4346
12.4803
12.1787
-5.71078
-6.02148
4.48458
4.47237
4.43788
1.24351
1.79352
2.0332
21.5185
21.5451
1.8954
2.039
1.89997
22.6668
21.791
6.60855
7.58942
20.9985
10.6418
11.1785
11.1543
0.0570097
-6.17496
-5.16605
20.6022
14.2004
13.9758
-8.94043
0.911378
22.0947
-1.24749
-1.13876
-2.78234
21.4928
21.6704
6.1662
6.23737
6.5431
6.58674
4.54721
4.52383
-3.14814
-2.85639
-0.568853
-0.722705
0.926111
0.894474
0.921137
5.52561
-3.62901
-1.56771
17.0116
17.2153
15.7248
16.6813
16.2702
13.1472
13.0845
3.96596
3.81684
15.9529
-2.68591
-7.62966
17.2898
1.43236
1.51907
7.06281
0.515308
-0.664568
0.0861505
0.281756
15.275
15.4433
-0.998557
-5.55786
-5.09529
14.3057
2.89331
2.26726
-1.72261
0.899835
0.957118
15.613
-7.41633
0.719168
-1.67438
-0.557828
-0.219435
12.2222
12.1145
19.4261
18.8806
12.633
12.9032
4.8086
20.2463
12.0212
11.7456
11.8823
-6.19971
21.8745
-4.70837
-4.78441
-6.98869
4.86082
4.87816
5.00824
3.81945
-4.9599
-5.61794
3.58295
3.94835
3.77813
1.96264
1.67445
1.63618
-0.139759
-0.378105
12.1907
12.4243
18.1484
18.303
18.1259
0.762909
0.617619
1.19079
1.30114
-13.8134
-0.361488
5.3984
6.38658
-7.32667
-7.43077
-9.32711
-9.68487
4.4896
4.48286
4.48101
8.95433
8.24867
9.59993
-0.688583
-0.558867
-0.281086
1.93821
2.25954
1.9631
14.0463
14.8894
2.76813
2.63111
2.3739
-11.6024
-11.2551
-12.0158
1.93689
1.84399
-10.7292
-10.9974
-7.14891
-6.57059
-6.52532
14.9145
14.6395
-12.6535
-12.2629
14.9532
14.7582
14.8159
3.84724
-2.61129
-0.047778
15.0706
23.3369
3.95558
19.7814
4.4935
4.50349
-8.19132
18.4796
3.10649
1.64719
1.52653
3.52118
3.44117
15.1691
15.1319
0.94422
4.877
4.90552
-6.65787
4.50006
4.23221
3.97545
2.38968
1.85827
6.30153
4.33623
4.37961
5.11587
5.42661
1.40525
1.71937
14.8652
14.9592
5.15786
5.25881
-25.906
5.43507
5.33955
-3.94437
-5.01465
4.45442
4.33689
5.29871
5.58229
4.48171
4.4098
-2.2136
-2.38767
-2.54906
15.7579
15.8675
15.9155
13.5261
13.5421
21.961
-1.50021
-1.39601
8.26413
-3.53367
-3.7637
4.23229
4.18984
-3.17846
-2.86508
-3.52819
-10.101
-10.613
4.3171
4.34988
-0.429356
-0.187357
18.1241
17.3263
-10.3941
-10.1467
-10.5611
-11.3542
-11.5547
-6.69532
-6.33112
-7.59469
21.5378
-3.82457
-3.7909
-3.86046
15.1368
15.0777
15.2638
9.54385
9.17275
-0.704312
20.2176
20.142
12.7756
12.6369
4.1498
4.16913
4.21114
5.98826
5.70959
5.82686
13.4061
13.4755
21.4937
21.3089
12.8745
12.4661
12.7321
-2.97714
-3.13636
-8.77781
-10.9552
-10.7009
20.6559
20.6421
20.9195
21.0717
4.16119
4.60411
5.10633
-0.0144447
0.0322647
4.01762
18.2874
18.8691
18.5272
19.0418
17.7975
16.9298
17.6106
18.22
4.06714
4.15819
-6.24411
-5.72911
-6.45124
-3.14971
-2.86904
-22.0467
-1.94763
-2.16653
-11.8493
-1.55383
20.3554
20.3657
-3.56357
-3.18304
-3.17542
1.59248
1.52057
1.3496
1.37316
0.441812
16.6202
2.45294
2.89294
-0.210506
-0.111303
-0.214428
-11.0573
-10.0353
-9.12011
20.3107
20.0785
-11.5253
-11.1386
4.75271
5.19466
20.8241
20.9114
20.3378
20.8354
3.74145
3.72666
-3.66328
-4.02385
-0.250141
-0.336733
-0.72331
17.8177
17.8071
16.4953
1.04532
0.977829
1.00751
-2.57507
-5.42655
-5.73519
-4.83655
1.30349
1.6674
2.32587
1.85046
1.16641
1.07634
1.00267
4.42304
-0.633605
-0.390106
20.0934
5.16363
3.77738
19.9297
19.5081
-11.9026
21.3894
0.738124
-12.4491
-19.2347
-7.05806
-10.2994
5.69043
3.72639
-1.77681
4.18611
-4.08417
3.92885
5.20634
4.52807
-9.86364
8.45237
4.49859
-9.63714
3.76002
6.04569
5.41935
-7.31151
5.55351
9.04039
5.64161
-8.44552
-8.63076
10.3687
-10.4839
8.09793
6.27876
4.01955
-1.59008
-6.64905
5.63027
6.0793
4.7114
3.00807
3.04452
13.8388
6.69277
0.818735
0.355332
0.672792
-14.7454
10.209
11.4348
10.9852
6.71812
7.01319
2.88378
4.05458
4.46675
9.84453
-12.1476
-12.0527
-3.88789
5.67716
-12.8923
3.87524
5.61399
2.77466
-1.14459
6.35868
4.40148
1.67489
-11.4097
10.7448
11.9654
-29.8258
5.71247
-1.19948
1.73462
8.13826
5.06604
-19.1206
21.0724
21.4263
-11.1899
-10.867
5.51027
4.00216
3.93302
-4.07421
4.87334
5.11876
4.29164
8.65643
6.70629
6.86778
-1.81009
-2.11234
6.68491
6.46762
7.34083
-15.8538
8.57511
8.61004
-3.83238
-3.74042
3.35899
4.51237
5.52279
5.64184
-7.76959
-8.64315
9.40509
10.2758
7.79313
6.80423
1.02514
1.76994
-11.8112
-12.7271
1.1557
1.73989
-10.8005
-4.82341
-5.58911
5.57008
5.653
-14.8302
9.22898
8.40158
7.34031
5.66707
5.71954
4.4323
-11.7657
7.6367
8.31806
4.5427
3.73709
-14.8959
7.8202
-12.4999
3.58262
14.0247
1.22712
3.9503
8.17929
6.36778
-0.498248
0.124916
-12.1473
0.532388
6.80733
2.60686
1.94688
2.88463
4.44573
0.869331
0.170886
6.11559
6.02789
6.00219
4.53624
11.7444
-0.781449
8.99811
6.31757
7.11386
2.48648
2.01859
11.9142
12.1103
2.51587
-16.5343
1.19581
1.63993
-13.1018
-13.3168
7.07129
6.55462
-5.20989
-5.64156
-6.78517
7.52098
7.81338
6.57568
-30.4728
6.61409
7.35502
7.42129
-9.49058
0.115476
8.33673
-11.3989
2.85704
-14.4063
-3.64526
-3.44862
0.898016
0.571576
-10.2015
-1.22357
4.17922
4.4618
2.58095
2.00091
2.85813
7.74723
8.14662
8.27767
14.1753
-0.0971618
-0.519468
-7.4911
7.27995
5.14325
-8.33256
5.69327
5.95579
6.09946
5.51985
6.01894
10.0128
5.27237
5.352
2.29661
2.52681
9.98987
9.22473
3.08528
3.64982
-2.91404
10.9129
10.532
-9.05349
6.40767
6.37254
6.36874
4.41547
4.40897
4.45095
-14.3829
-0.566183
4.21188
2.79817
3.409
2.25757
4.48652
4.47734
7.24726
7.3679
4.56702
-12.8723
9.16873
-20.0415
1.39442
2.34527
8.0712
7.93954
9.34505
8.84841
-10.9629
5.37092
-3.79792
-3.41336
7.33885
8.23088
3.70513
1.09588
1.67404
1.99825
12.825
13.5531
5.9168
6.26042
9.77041
10.0069
10.1051
10.3686
4.53159
3.99734
-11.2553
-11.1998
1.3904
1.10229
0.130606
0.261736
21.0384
21.0247
21.248
6.2388
5.99337
5.51689
4.94262
4.77742
5.73635
5.39082
5.93986
0.58756
-0.0258446
13.5657
12.7898
5.54526
5.22703
6.31495
6.4637
-13.164
14.2053
14.3155
0.90976
-0.0279967
6.28947
6.41775
1.49043
1.63039
2.85689
3.2546
6.06559
5.17974
4.05569
-5.44554
-5.82055
-14.2689
2.23071
1.84036
2.89618
3.40447
8.29123
-6.05374
-6.99599
-6.15002
-2.1465
1.06677
1.77189
13.7731
14.4206
3.20289
2.80113
7.06013
7.15934
-3.18782
-3.40448
6.78266
6.92063
0.344068
0.801777
5.89809
6.36407
6.33696
6.29246
6.62646
6.3322
-0.16762
-1.57066
10.4183
10.3847
-10.7365
-10.0036
21.8347
7.2791
5.67578
5.78589
-5.49575
-6.23601
3.24777
3.32519
-3.73658
5.12712
5.06045
6.21901
5.72556
8.55755
8.54809
4.34273
-16.3067
-15.565
4.26432
4.89006
5.88927
9.9067
0.16876
4.05239
3.74659
8.91454
9.6249
7.18236
8.01474
7.7632
8.06069
7.44097
-14.1698
-0.892114
6.42526
6.89041
6.35688
6.74864
4.45489
4.50973
4.53294
4.53215
3.02825
4.14023
3.48315
6.52898
4.02299
3.88639
4.06809
-12.2283
-12.22
-12.3655
-1.57926
7.71163
5.87824
1.71487
1.90747
0.901982
0.256267
-12.245
14.0048
13.7643
-16.2188
5.92202
9.17014