/*--------------------------------*- C++ -*----------------------------------*\
  =========                 |
  \\      /  F ield         | OpenFOAM: The Open Source CFD Toolbox
   \\    /   O peration     | Website:  https://openfoam.org
    \\  /    A nd           | Version:  6
     \\/     M anipulation  |
\*---------------------------------------------------------------------------*/
FoamFile
{
    version     2.0;
    format      ascii;
    class       surfaceScalarField;
    location    "400";
    object      phi;
}
// * * * * * * * * * * * * * * * * * * * * * * * * * * * * * * * * * * * * * //

dimensions      [0 3 -1 0 0 0 0];

internalField   nonuniform List<scalar> 
44596
(
1.54513
-2.17551
0.630384
1.54513
1.44634
-1.44634
1.93732
-0.490973
-0.0952474
-2.15918
2.11
-0.564876
1.31875
-1.31876
0.21587
1.81684
-2.21221
0.765872
-0.267209
2.30055
-0.803325
-1.21143
0.803325
1.30668
-0.564389
-1.35163
0.564389
0.75436
-0.597267
-0.825724
0.825726
-1.17062
1.38649
1.19404
0.63784
-1.83188
0.0427822
1.50311
-1.54589
1.42683
-1.42684
-0.148885
-1.68434
1.83322
1.5532
-0.0862308
-1.46696
1.1256
-1.1256
-1.112
1.112
1.1282
-1.12819
0.23587
1.24868
-1.48455
1.36982
-1.36982
1.47439
0.0788036
-1.32502
1.32502
0.265645
1.35376
-1.61941
-1.58562
1.58563
0.602837
0.581856
-1.18469
1.94336
-0.516536
-1.26023
-0.22066
1.48089
-1.43862
1.43862
0.706632
1.29318
-0.793233
1.49987
1.47191
-1.7669
0.29499
-1.62282
1.62282
1.05543
-0.819565
1.25363
-1.42311
0.169477
0.967442
-0.967441
1.20807
-1.35695
-2.32439
0.83572
-0.835722
1.01465
-1.10089
1.85037
-1.93661
-1.59445
-0.615969
-0.792776
-0.801672
-0.897599
0.8976
-1.03972
1.0825
1.9801
0.0633335
1.48752
-1.55085
-1.53524
0.135303
1.39994
-1.55085
-0.460023
0.00660426
-1.44524
0.113603
0.213019
0.259579
-1.81043
-1.50732
1.81043
0.531619
-1.21324
2.00601
-1.44524
-0.946107
-0.477001
-1.55729
1.5573
0.899508
-0.388286
-0.511224
-0.814084
0.414621
0.399462
0.702755
-0.11411
-0.588645
-0.00247407
-0.092801
0.0952741
-0.0590167
-0.0658233
0.12484
0.061747
1.44136
0.853622
-0.791876
-0.00483131
-1.46213
-1.2093
1.20447
-0.040005
-0.00405278
0.0440576
0.123605
1.07043
-0.793792
0.554396
0.239396
-1.67154
-0.0128016
-0.35309
0.937492
-0.584403
0.415499
0.597835
-1.01333
0.0483563
-0.890095
0.841737
0.00786457
0.0693398
-0.0772053
-0.0369231
0.00989202
0.027031
0.096019
-1.01296
0.916942
0.80552
0.635841
0.710556
-0.60831
-0.102247
1.24593
-0.143012
-1.10292
-0.162113
-1.09842
1.26053
1.53804
-1.70015
-0.0229037
-0.0140195
0.00593447
-0.0459395
-0.940868
-0.730672
-0.0383371
-0.902532
-1.08376
-0.00573476
0.0331734
-0.027439
-1.31126
-0.150873
-0.440272
-0.870982
0.00992077
-0.803714
-0.804165
-0.68011
-0.611932
-0.330457
0.942384
-1.20749
0.986829
-0.000178879
0.000179153
-1.10215
1.25477
-0.152619
0.253048
0.90416
-1.15721
0.816066
0.0712665
-0.887323
0.0179823
0.919507
0.917488
0.906704
-0.483643
0.899144
-0.887406
-0.321889
-1.1316
-0.308474
1.44007
-1.19934
0.261159
0.938185
0.542273
-0.859546
0.317271
1.05618
0.94372
-0.748977
0.761181
-0.0122074
-0.888773
1.05825
0.848956
-0.211117
0.253198
-1.18882
0.935624
-0.979202
-1.03034
-0.28208
0.984834
-0.902552
-1.42184
0.940889
0.309841
-1.25073
-0.00974891
-1.41709
1.14135
-0.205727
1.22187
0.758237
1.07602
0.923913
-0.635401
-1.3012
1.07567
0.173004
-1.11227
-0.867708
-1.86127
0.748999
-1.63687
-0.195014
1.16235
-0.739561
-0.422791
-0.10129
0.803647
-0.702356
-0.954144
0.0831622
0.886811
0.118046
-1.06416
-1.3272
0.422283
-0.918663
0.496378
0.828448
-0.615429
-1.53409
-0.810019
0.333018
0.352335
0.720261
-0.780659
0.0603958
0.81383
-0.700228
0.048546
-0.0406816
0.0398592
-0.0455942
-0.538335
1.03471
-1.24201
0.703676
-0.00131844
0.00131838
0.868232
-0.883818
0.0155876
0.12867
0.0007982
-0.000798253
0.000798079
-1.09912
1.09912
0.863482
0.805224
-0.676555
0.756035
-1.25079
0.494756
-0.719737
0.570362
0.149374
-0.00918132
0.39573
0.457893
-0.565817
-0.238349
-1.5485
1.49197
0.0565335
0.206704
-1.09548
1.53804
0.946295
1.38682
-1.46917
0.0823537
0.00161005
-0.00161009
0.00081177
-1.00393
0.88982
-0.8563
1.15643
-0.300128
0.817762
1.4206
1.29643
-0.714573
-0.637602
-0.375729
0.658829
2.34975
-0.979925
-0.149249
-0.923532
0.234681
-0.650373
0.415691
0.0591802
0.804302
0.285788
-0.874434
1.05073
-0.0639095
-1.19366
0.951581
-0.247904
-0.132182
0.792465
-0.114526
1.23923
-1.35898
1.35876
0.000213089
-1.04196
-0.503928
-1.53293
-0.767062
0.382885
0.0489969
0.62691
-0.675904
1.20964
-0.153452
-0.149344
1.71835
-0.488546
-1.2298
-0.142927
0.76246
-0.410126
-0.629779
-0.229767
-1.41018
1.34467
1.97506
0.00357612
-0.00244078
-0.00113526
0.00170281
-0.00721478
0.00551196
-0.0269826
0.0278422
-0.00085969
0.0411618
-0.0210551
-0.0201066
-0.00476253
-0.00515257
0.00991509
-0.0100856
0.00532309
-0.048507
0.00706557
0.0414416
-0.0187719
-0.103753
0.122525
-0.00493765
-0.00594468
0.0108823
-0.0658535
0.0504577
0.0153957
-0.111896
0.0726035
0.039293
0.0685211
-0.0114114
-0.0571093
0.00660366
-0.00434675
-0.00225687
-0.505563
0.328347
0.177215
0.0200121
0.00152543
-0.0215375
0.00644378
-0.00362625
-0.00281748
6.10707e-05
-6.196e-05
0.00443954
-0.00937719
0.00706217
-0.00541821
-0.00164394
0.0172029
-0.0357452
0.0185424
-0.00701081
0.00619577
0.000815063
0.00474015
0.00170366
-0.0426745
0.00454924
0.0381251
0.0377584
-0.0379251
0.000166674
0.0103396
0.0111713
-0.0215109
0.0324619
-0.0221224
-0.0544299
0.0101847
0.0442452
-0.0386456
0.0558722
-0.0172266
0.000770603
-0.000770704
-0.00625013
-0.00725284
0.0135029
-0.0114027
-0.0635026
0.0691766
-0.00567018
-0.00673251
-0.0538384
0.0605716
-0.0370497
0.00817717
0.0288726
0.00301205
0.0153027
-0.0183147
-0.00207983
-0.0148023
0.0168821
0.00262311
-0.00262303
0.0141447
-0.0377941
0.0236494
0.00530111
0.00645787
-0.011759
0.0104679
-0.00127734
-0.00919052
-0.0105291
0.0853701
-0.0748406
0.0652167
-0.0757456
0.0514887
0.0220324
-0.0735209
0.0667469
-0.0152582
0.00670627
-0.00333422
-0.00337205
-0.00399858
0.0461957
-0.0421968
0.0612181
0.00983972
0.0101723
0.0197317
0.00548016
-0.0231681
0.0176881
-0.0187034
0.019159
-0.000455518
-0.00654854
-0.0121549
0.0506987
-0.0459961
-0.00470255
-0.0429435
-0.00355424
0.0464975
-0.00648503
0.0040417
0.00244335
0.00807306
-0.00707053
-0.0010025
-0.0088224
0.0289084
-0.020086
-0.0560245
0.0492933
0.0124972
-0.0142085
0.00276953
-0.0066798
0.00391033
-0.0166071
-0.0378227
-0.00191137
-0.00420622
0.00611757
-0.0205955
0.014047
0.0121182
0.0023418
-0.01446
0.0061611
-0.013414
-0.633852
0.303394
-0.0190627
0.0102403
-0.003359
-0.00162307
0.00498201
0.0203846
-0.0198445
-0.000540052
0.00799357
0.012391
-0.0100469
-0.00901581
0.00328743
-0.0133343
0.00676333
-0.0157792
0.00489214
-0.00789811
0.00300601
-0.00316723
-0.00249264
0.0056599
0.000867731
0.00973576
-0.0106035
0.0472502
-0.0370655
0.00860454
-0.0428337
0.0241217
0.0187121
-0.0138223
0.017954
-0.00413168
-0.00325781
0.0167608
0.0120236
-0.00943156
-0.00259204
0.0437899
-0.0351853
0.0460176
-0.00222775
-0.04571
0.0105247
0.0586279
-0.675263
0.616637
0.00356365
0.00450944
-0.00407703
-0.00240798
0.0649359
-0.342817
0.277879
0.170685
-0.502777
0.332093
-0.000917468
-0.00637459
0.00729205
-0.00392886
0.00699684
-0.00306801
0.0227902
-0.0147966
-0.00837397
0.0250252
-0.0166513
-0.0279162
0.0115949
0.0163213
-0.0187514
0.0285251
-0.00977372
-0.0466676
0.04012
-0.00649596
-0.00490676
-0.0141257
0.020889
-0.00645624
0.00815904
-0.00556734
0.00709276
0.0152518
-0.0350944
0.0491564
-0.0140621
-0.0547433
0.019649
-0.00255545
0.0188717
-0.0163163
0.00498452
-0.0179662
0.0129817
-0.0617892
-0.0501074
0.265916
-0.584703
0.318787
-0.00173792
0.0494554
-0.0477173
0.0489609
0.0380443
-0.377948
-0.127615
-0.0121044
-0.00943317
0.00839049
0.0117526
-0.0201431
-0.142897
0.204885
-0.0619888
-0.000375511
0.000375522
0.073872
-0.0289123
-0.0449598
-0.00582545
0.0086586
-0.00283312
-0.045663
-0.0199899
0.0656527
0.00910772
0.00614406
0.0122176
-0.00697215
-0.00524546
0.00729824
0.0118607
0.0122828
0.00165316
0.0102076
0.188331
0.117138
-0.305471
0.0206012
0.00601641
-0.0266176
0.0023025
-0.0144069
0.465261
0.123973
-0.589235
-0.755323
-0.134774
-0.00384586
-0.0227719
0.0377935
-0.00462024
0.0339476
0.0289636
-0.0223962
-0.00656743
0.0123523
-0.0397915
-0.00806115
0.00156517
-0.00911037
0.00104921
-0.389762
0.488745
-0.098985
-0.51264
0.500432
0.0233289
0.0325433
0.0396503
0.0600345
0.0152848
-0.0753195
-0.0501532
0.0403795
-0.000996779
0.0407393
-0.000359835
-0.00359325
0.0404471
-0.0368539
-0.0465368
-0.00628832
0.00459317
0.00169514
-0.0642675
0.0186041
-0.0041698
0.0419279
0.00990254
0.00624385
-0.0161464
-0.00734709
-0.0124974
-0.00625361
-0.636999
0.49664
0.140358
-0.0305877
0.0231252
0.00746254
0.00187419
-0.0197085
0.242539
0.240198
-0.482738
0.344934
-0.102396
0.557469
-0.0085986
-0.000832964
0.00148644
0.0102661
-0.00711217
0.0309149
-0.0333892
0.0349386
-0.0290042
-0.0623934
0.328344
-0.15404
-0.174303
0.00500387
0.0039585
-0.00896222
-0.00595364
0.00801952
-0.0020658
-0.00633264
-0.0141803
0.020513
0.00984514
-0.0161777
-0.0124651
0.00535295
0.000877559
-0.0133427
0.0120195
-0.00666659
0.0288514
0.0241516
-0.0530036
0.0333364
-0.00274207
-0.0305944
-0.0121637
-0.0502298
0.0381753
0.00168381
0.0260115
0.0091126
-0.000983514
-0.00812909
0.00327348
0.00583912
-0.0196451
-0.0174219
0.0370672
0.0121826
0.0149317
-0.0271142
-0.0024902
0.0039039
-0.00783274
-0.005618
-0.0370563
0.0360929
-0.0188901
0.00716811
-0.0103981
0.00323002
-0.00883042
0.00745833
0.00137206
-0.026911
0.0128915
-0.00703657
0.033048
0.0151684
-0.0175623
0.00239392
0.0213294
-0.0204208
0.924582
0.209605
0.595619
-0.444286
-0.185493
-0.0104689
-0.00709346
0.00551213
-0.0159811
0.00896501
-0.0160585
-0.0501668
0.0106562
0.0395106
-0.000290893
-0.0570049
0.0572954
0.00765132
0.0166656
-0.0243169
-0.0188226
-0.00829159
0.0343818
0.00606515
-0.00773835
-0.0301869
0.0266433
0.00680114
-0.00271991
-0.00408121
0.00685649
-5.5326e-05
-0.00714709
0.00442721
0.0185084
-0.0154964
-0.534705
0.595099
-0.51603
0.598558
-0.0825308
-0.00374158
-0.00689853
0.0106401
0.0276843
-0.0867009
0.0319476
-0.017803
0.00496506
0.0282147
0.0126216
0.00870777
0.0177955
-0.00517378
-0.0150747
0.0237824
0.0749788
-0.0654694
-0.00950817
0.00399906
-0.0201492
0.0161501
0.0211667
-0.00881439
0.0251657
0.324413
-0.338631
0.0142199
0.00230075
0.00991684
-0.00854928
-0.0005611
-0.00624853
0.00935573
0.497089
0.9456
-1.44268
-7.44259e-05
7.42652e-05
-0.568701
-0.0652099
0.633911
-0.818635
1.31573
-0.001397
7.84808e-05
0.467127
-0.408501
-1.06379
1.06379
0.130819
0.945207
-0.885665
0.653563
0.232103
-0.408096
-0.47757
1.23962
-0.26389
-0.975728
0.124975
-0.0673676
-0.0576068
-0.528139
-0.108859
-0.10167
-0.426467
-0.803928
0.899944
0.182881
0.316036
-0.498919
0.371212
0.040885
0.652457
-0.693342
0.483476
-0.442592
0.0826141
-0.0225793
0.601817
-0.622237
0.537717
0.0641024
0.138212
-0.110527
0.484148
-0.236837
-0.247309
0.195594
0.288555
0.00431935
-0.00474348
0.000424105
-1.01641
-0.144926
0.575284
-0.430353
0.000220376
-0.000220472
0.400357
-0.944299
0.543944
-0.553537
0.602535
-0.307789
0.593577
0.080349
0.0578623
-0.610336
-0.216486
0.826822
-0.0690298
-0.0243582
0.0933881
0.0135865
-0.156306
0.00795082
0.148355
0.644382
-0.700872
0.0905355
-0.330568
-0.370304
-0.693206
0.362639
-0.918842
0.0448284
-1.00653
0.758629
-0.164797
-0.439193
-0.23607
-0.643283
0.413514
-0.13342
0.355325
-0.888955
0.500668
-0.613047
-0.275909
-0.000215769
0.00021559
0.00143652
-0.00484878
0.00341224
1.03828
-0.151468
-0.0105188
-0.670104
0.680622
0.950046
-0.625807
-0.324241
0.336998
0.217881
-0.701524
0.66086
-0.0910941
-0.569765
0.881195
0.738183
-0.313661
0.714016
0.0289712
0.0670152
0.0131768
-0.185196
0.227991
-0.0427933
0.218914
0.425469
-1.15601
1.15601
-0.487412
-0.205791
-0.736883
-0.276085
0.815592
-0.314924
0.0787084
0.272493
0.194634
-0.00500387
0.00293696
0.00206688
0.793391
-0.527473
0.305979
-0.0234612
-0.0892845
-0.00907063
0.00282211
0.810642
-0.955564
-0.456256
2.01356
1.03572
-0.541254
0.358608
0.182644
-0.268761
-0.326346
-0.331623
0.657971
0.038269
0.246639
-1.49743
0.858593
-0.611954
-0.0862127
-0.254751
0.340965
-0.271409
1.20125
-0.05862
0.0420129
-0.0365877
-0.59752
-0.206409
1.07454
0.251824
-0.585147
0.33332
-0.837857
-0.586034
-0.799766
0.253898
-1.05366
-0.0109402
-0.0127304
0.0540165
0.0613031
-0.945121
0.71376
1.35554e-05
-0.000229723
1.22187
-0.682036
1.90391
0.223613
1.03856
-0.814949
0.936894
-0.925194
-0.091213
-0.292438
-0.292711
0.649943
-0.0194168
0.004342
-0.0170229
-0.0284903
0.0114674
0.109634
-0.647351
0.724253
-0.0769011
0.297786
-0.604462
0.982087
-0.377623
-0.0291766
0.781466
1.03281
-1.17574
0.00665729
-0.634161
0.264983
-0.140819
-0.00361513
0.0273974
0.0415261
0.186464
-0.0690012
1.27611
0.210839
0.853318
0.0402599
-0.043814
-0.00573613
0.0118438
-0.101129
-0.0748572
-0.143859
-0.0214427
-0.0621247
0.418565
-0.495466
0.511044
-0.0924787
0.348651
0.162392
0.42005
-1.34188
0.15799
0.0372042
-0.488376
-0.161999
-0.451173
0.57655
0.0400867
-0.450191
0.288194
-0.101856
-0.348336
-0.356607
1.13973
0.133385
0.827006
-0.693621
0.563117
2.42817e-05
-9.87669e-05
0.00575584
-0.790606
-0.462259
-0.597034
0.0229782
1.39408
0.712042
-0.757131
-0.00694064
0.00828821
-0.00134755
0.00246774
-0.00940838
0.000627555
0.00498682
-0.00561437
-0.00522626
-0.00643124
0.0116575
-0.149153
0.264468
-0.115316
0.00534413
-0.00497987
-0.000364229
0.00701213
-0.00215834
-0.0048538
-0.00681062
0.00459239
0.00221821
-0.00465043
0.00309616
0.00155429
-0.013235
0.0131402
9.47313e-05
0.0120464
-0.00252884
-0.00951754
0.00279418
0.00925219
-0.0153257
0.00404554
0.0112801
0.00646818
-0.00206379
-0.00440439
0.00311427
0.00335391
-0.0127024
0.00369802
0.00900436
0.00634044
-0.0190428
-0.004505
-0.00327725
0.00778225
-0.00813685
-0.000858195
0.00899504
0.00259964
0.00793075
-0.0105304
0.00302416
0.00300617
-0.00603028
0.0036588
-0.00768632
0.00402752
0.00918542
-0.00979139
0.000605966
0.00231076
0.00687466
-0.00734376
0.00465394
0.00268981
-0.00446057
-0.00288319
0.00265753
-0.00669672
0.00403919
-0.00125347
0.00828871
-0.00703524
-0.00210083
0.00359755
-0.00149674
-0.00354973
0.00192758
0.00162216
-0.0036868
-0.00279835
0.00648533
0.00493806
-0.00862499
-0.00291179
0.00938954
-0.00647774
-0.0067894
0.00163103
0.00515837
-0.00186094
-0.00492847
0.0039798
-0.00722971
0.00324991
0.00258846
0.00366109
-0.00624948
0.00651929
-0.00731863
0.000799343
0.00348742
-0.00286324
-0.000624178
0.00336344
0.00268483
-0.00604827
0.00447238
-0.00492106
0.000448772
-0.00645626
0.00195127
0.0080411
0.0010525
-0.00909362
0.00488437
0.00315672
0.00310557
0.00705403
-0.0101596
0.00807457
-0.00875459
0.000680029
0.00965261
-0.000743052
-0.00890955
-0.00828831
0.000907053
0.00738131
-0.00706102
-0.00124696
0.00830809
-0.00357541
0.00623294
0.00698016
-0.0107885
0.00380836
-0.0121986
-0.00103638
-0.00658024
-0.00561837
-0.0255025
0.0208009
0.00470156
-0.00889415
-0.336998
0.345891
-0.00790037
0.00445239
0.00344798
-0.00566483
0.00644642
-0.000781587
0.187299
-0.196193
-0.00424239
-0.00494428
0.00918667
-0.0100473
0.00203298
0.00801429
-0.00219993
-0.00784734
0.0190755
-0.00657157
-0.0125039
-0.0056573
0.0247328
0.00730447
-0.00162116
-0.0056833
0.0033063
0.00399817
-0.00597557
0.0101027
-0.00412711
0.0049058
-0.00800616
0.00310036
0.00827997
-0.0051657
-0.000955752
0.00999349
-0.00903773
0.0050385
-0.00579292
0.000754417
0.00925094
-0.0114867
0.00223578
0.0090235
-0.00902353
0.00205373
0.0145404
-0.0165941
-0.0107733
0.00557023
0.00520308
-0.00826393
0.0022113
0.00605263
0.00856568
-0.00856568
0.00736135
-0.00736135
0.00177649
0.00756759
-0.00934408
0.0414228
-0.0188179
-0.0226047
-0.00366468
-0.00524668
0.00891136
0.00750005
-0.00680611
-0.000693891
-0.0212805
0.00569614
0.0155844
0.0104428
-0.0317233
0.003439
0.00393701
-0.00737601
0.00359657
0.00300711
-0.0037864
-0.00336066
-0.00255014
0.0146684
-0.00405278
-0.00609422
0.010147
0.00665329
-0.00388464
-0.00276866
-0.00600444
-0.001795
0.00779942
-0.0122055
0.00462139
0.00758403
-0.0113355
0.00682445
0.00451109
-0.0037781
0.00689057
-0.00311248
0.00112126
-0.00489936
0.011572
-0.00936543
-0.00220658
0.00957035
0.00105261
-0.010623
-0.00749587
-0.00128006
0.00877593
-0.0041837
-0.00331216
-0.00253718
-0.00663313
0.00917031
0.00271714
-0.00646189
0.00374475
-0.000869362
0.00715332
-0.00628395
-0.00067621
0.00645395
-0.00577773
-0.00356646
-0.00371797
0.00728443
0.00834303
-0.0048206
-0.00352243
-0.0114163
-0.00100292
0.0124192
0.0114412
-0.0060884
-0.00535283
0.00486808
0.00597853
-0.0108466
-0.00726649
0.00567471
0.0015918
-0.00716011
0.00617058
0.000989531
-0.00665167
0.0114738
-0.00482211
0.00625856
0.000966647
-0.00722522
0.00691788
0.00061443
-0.00753232
0.00874002
-0.00296527
-0.00577475
0.00255023
-0.00682763
0.0042774
0.000283831
-0.00570348
0.00541968
0.00502398
-0.0023521
0.0063583
-0.0040062
-0.00772058
0.00149025
0.00623033
-0.0175708
0.02279
-0.00521909
0.00230817
-0.00556452
0.00325635
0.00304079
0.00504828
-0.00808907
-0.00634628
-0.00381939
0.0101657
0.00296687
-0.00931315
0.00653503
-0.0017066
-0.00482843
0.0073367
-0.000801679
0.023289
0.0181338
0.00493837
0.00397652
-0.00891489
0.0108518
-0.0100925
-0.000759331
0.00952478
-0.00952486
0.00570824
0.00370441
-0.00941265
-0.00604612
-0.00144659
0.0074927
0.013399
0.0252647
-0.0386636
-0.00378035
0.00848258
-0.00470223
0.00221446
0.00579529
-0.00800975
0.015009
-0.0127358
-0.00227311
-0.0039475
-0.000232083
0.00417962
0.00675391
0.00335151
-0.0101054
-0.00312207
0.00602902
-0.00290695
0.00653909
0.00479172
-0.0113308
0.000640125
0.00577326
-0.00641339
-0.00192673
-0.00690082
0.00882755
-0.000400488
0.00685603
-0.00645554
-0.0272472
0.04457
-0.0173229
0.0340411
-0.0612883
-0.00814643
0.00211849
0.00602794
-0.00374498
-0.00440145
-0.00944937
-0.00263003
0.0120794
0.00823715
-0.00406838
-0.00416877
-0.010928
0.0056543
0.0052737
-0.00659718
0.00979517
-0.00319798
0.0011652
-0.0063599
0.00519469
-0.00237619
-0.00347696
0.00585315
-0.00841136
0.00206844
0.00634292
0.00126151
0.00202867
-0.00329019
-0.00215054
-0.00249985
-0.00191542
-0.0049776
0.00689303
0.00900536
-0.00881226
-0.000193097
0.00921925
-0.0117564
0.0116138
-0.00834035
0.00163341
0.00298137
-0.00461478
0.00698514
-0.00535173
-0.021503
0.027738
-0.00623517
-0.0165595
-0.00494356
0.00115999
0.00647352
-0.00763352
-0.00829346
0.00808437
0.000209092
-0.00521845
-0.00307501
0.00963257
-0.00693489
-0.00269769
0.00645046
-0.010911
0.00118669
-0.00763117
0.00644448
-0.00375894
0.00686451
0.005634
-0.00939294
-0.00725227
-0.00504774
0.0123
-0.00784471
-0.00338207
0.0112268
-0.0126405
0.00600735
-0.00699341
0.00342695
0.000744924
0.0044463
-0.00519122
0.00512863
-0.00509108
-3.75509e-05
0.00223415
0.00289449
-0.00165785
0.00769235
-0.00603449
0.00483281
-0.00669375
0.0268714
-0.00429401
-0.0225774
0.0383712
-0.0114998
-0.0315754
-0.00621865
0.00991036
-0.00944303
-0.000467326
0.00798363
0.00813597
-0.00639131
-0.00174468
0.00132534
-0.0104209
0.00402962
0.002048
-0.0158703
0.00701774
0.00215574
-0.00917348
-0.00899336
0.00945326
-0.000459905
-0.00699403
-0.000489021
0.00748305
0.00414812
0.00685021
-0.0109983
0.00663342
-0.00628398
-0.000349434
0.0046542
0.00122475
-0.00587895
-0.0207053
-0.0224299
0.0431352
0.00612955
-0.0099099
-0.00460432
0.0106199
-0.00601556
-0.00708244
0.00179202
0.00529042
0.000200887
-0.00912022
0.00891933
0.00974107
0.000518323
-0.0102594
0.00265417
0.00421236
-0.00686653
0.00765919
-0.010924
0.00326483
0.00603953
0.000664649
-0.00670418
0.129556
-0.047973
-0.0815831
0.000401781
0.00833824
0.00731966
0.0102694
0.00417965
-0.014449
-0.00501594
0.010539
-0.00552303
0.0018017
0.00606941
-0.00787112
-0.00794559
0.00424176
0.00370384
-0.00211689
-0.0051496
-0.00878572
0.018395
-0.0096093
-0.00258495
-0.00528322
0.00786817
-0.00203764
0.00972487
-0.00768723
0.00519181
0.00697873
-0.0121705
0.00801144
-0.00849263
0.000481191
0.0111314
-0.0083372
0.0104787
-0.00726783
-0.00321086
0.00214163
-0.00927111
0.00712948
-0.00518852
0.00733015
0.000411239
0.00558384
-0.00599506
0.0100742
-0.00488234
0.00444821
0.00459322
-0.00904143
0.00510057
0.00291087
-0.00405999
0.00916055
0.0098896
-0.0058615
0.00916781
0.00753076
-0.00355095
-0.00171692
0.00825601
-0.0099378
0.00702602
-0.0201532
0.0043189
0.0158343
-0.0122834
-0.0078698
-0.00977558
0.00809916
0.00167638
-0.00959373
-0.000181849
-0.000337568
0.0050999
-0.00476233
0.00310093
-0.00740679
0.00430585
0.0328736
0.0270096
-0.0598832
-0.0361323
-0.0209768
-0.00325862
0.00299125
0.00251926
-0.00551051
0.00544987
-0.00010577
-0.00490272
0.0124799
-0.00757723
0.00185716
-0.00681505
0.00495789
-0.0107854
0.00676928
0.00401616
-0.00751782
0.00301458
0.00450325
-0.00699519
0.00685368
0.000141516
0.00334628
0.0139128
-0.017259
0.00968672
0.00696086
0.00695192
-0.00577408
0.0113911
-0.00561706
-0.00850032
-0.00259675
0.0110971
-0.00414884
-0.00454233
0.00869117
-0.00122184
-0.00730477
0.00852661
0.00103073
-0.00872417
0.00769344
0.00654902
-0.00951429
0.0153357
-0.00440864
-0.0109271
0.00925279
0.00448602
-0.0137388
0.00786688
-0.0283751
0.0205085
0.000986614
-0.00966175
0.00867514
-0.00576838
0.0119397
-0.0061713
0.00871158
-0.000948442
-0.00776314
-0.00146797
-0.00797099
0.00943897
0.00858841
-0.00686997
-0.00171829
0.00152744
0.000924213
0.0023469
-0.00327115
0.0125009
-0.00324815
0.00610966
0.00639127
0.0120876
0.00238079
-0.00744976
0.00506898
-0.00685899
0.00692751
-6.85165e-05
-0.00293249
-0.0039265
0.000535963
-0.00985668
0.00932072
0.00870791
-0.00422189
-0.00110191
-0.0102435
0.0113454
-0.00980877
0.00870687
-0.00633875
0.00993641
-0.00359766
-0.00629936
-0.00230004
0.0085994
-0.0162325
0.011062
0.00517053
0.0121021
-0.0148135
0.0027113
-0.0366386
-0.0118684
0.0746071
0.0549486
0.0119982
-0.00336059
-0.00863763
0.017638
-0.0121578
0.00892332
0.00856676
-0.01749
0.0102006
-0.0090406
0.00120697
0.00899363
-0.00790263
0.0091096
-0.00360838
-0.0073379
0.0109463
-0.00298506
-0.00378664
0.00677173
-0.0377463
0.0212253
0.016521
0.0327677
-0.0300704
-0.00269735
-0.00198148
-0.00179973
0.0037812
-0.0361615
0.0242147
0.0119468
0.00476204
-0.0221642
0.0174022
0.000332911
-0.010432
0.0100991
0.00144236
-0.01109
0.00964761
-0.0128681
0.00573356
0.0071345
-0.00539377
0.00746625
-0.00207248
-0.00497434
0.00984243
0.00646691
-0.00110286
0.00607314
-0.00497025
0.00241528
0.00579668
-0.00821196
-0.00689618
-0.00123296
0.00812914
0.00456992
-0.00842653
0.00385656
-0.00263808
0.0114175
-0.00877939
0.00747562
0.00575541
-0.013231
-0.00238889
-0.00718035
0.00956924
0.00667906
-0.0100328
0.00335369
0.00503969
-0.00535274
0.000313066
-0.00300327
-0.00406726
0.00203643
-0.0072455
0.00637612
-0.007935
0.00847096
-0.00900416
0.0018985
0.00710567
-0.00850872
0.00977501
-0.00126629
-0.00747799
-0.00330897
-0.00933151
-0.0111537
-0.0033054
-0.00693812
-0.00995707
-0.000545371
-0.00639275
0.00480569
-0.0073349
0.0025292
0.00790663
0.000235065
-0.00521493
0.00858229
-0.00967232
0.00109003
0.0011182
0.00746408
-0.010787
0.00336343
0.00742358
-0.0057459
-0.00475411
0.0105
-0.0185854
0.0105805
0.00800483
-0.0123653
-0.0062202
-0.00469068
0.00956975
-0.00487907
0.00612851
0.00502867
-0.0111572
0.00108686
-0.00733463
0.00624776
0.0222309
0.00667742
0.0269929
0.142868
-0.241853
-0.19413
-0.00251233
-0.00544429
0.00795667
-0.00546777
0.00295546
-0.00524816
0.0113695
-0.00612136
-0.00177894
0.00395495
-0.00217601
0.0175693
-0.0139833
-0.00358604
0.00231528
-0.00594148
-0.01047
-0.0288917
0.0393618
0.0273601
-0.0378301
0.0109468
-0.0181899
0.00724306
0.00440567
0.00586427
-0.0102699
0.0198569
-0.0114164
-0.00844047
-0.0093372
0.0167497
-0.00741253
-0.0127599
0.0259895
-0.0132296
0.0150823
0.0321598
-0.00617025
0.00394501
0.00399243
-0.00793745
0.0180876
0.0230742
0.0397948
-0.0221411
-0.0176537
0.00965612
-0.0120262
0.00237004
-0.00908799
0.00921512
-0.00012713
-0.0206691
-0.00149524
-0.0104288
-0.0161225
0.0146271
0.0158999
-0.0126868
-0.00321312
-0.0273322
-0.0293798
0.056712
-0.0562335
0.0297046
0.0265288
0.0150795
0.000422883
-0.0155024
-0.00671052
0.00244152
0.00426905
0.00252562
-0.00482222
0.00229659
0.00328789
0.0018268
-0.00511468
0.00581351
0.0057691
-0.00278138
-0.00298775
0.00415443
-0.00483064
-0.00336338
0.00247568
-0.00679569
0.00432004
0.00651739
-0.00994066
0.00955698
0.000383682
-0.00540147
-0.00453919
-0.00238113
-0.00580844
0.00818958
-5.92433e-05
0.00799579
-0.00793654
0.0083483
-0.00840755
-0.00235035
0.0115696
0.00926347
-0.000703147
0.00572967
-0.00502656
-0.00504173
0.00433865
0.0106827
0.00382937
-0.014512
-0.00502536
-0.0125455
-0.00871609
-0.00287683
-0.00699154
0.00986838
0.0047681
-0.00764493
-0.000270284
-0.00672126
0.00189458
-0.0100905
0.0081959
0.00311834
0.0063412
-0.00945954
0.0103508
-0.00367169
-0.00464019
0.00419168
0.000448489
0.00864006
-0.00332167
-0.0053184
-0.00707616
0.00707614
-0.0164031
-0.0180576
0.0344608
-0.00643754
0.00704859
-0.000611001
-0.00305939
-0.00240837
0.0256143
0.00424236
-0.0298566
0.0138872
0.0117271
-0.0212113
0.0254537
0.0057997
-0.00428051
-0.00151919
-0.00202979
-0.00451977
0.00654955
0.00376991
-0.00853556
-0.00366992
0.00985734
0.00604259
-0.00132863
0.011186
-0.00809341
0.014136
0.010067
3.07925e-05
-0.0100977
0.00539153
0.00467544
-0.0132723
0.0133031
-0.0045067
0.00636387
0.00482132
0.00605983
-0.0108811
-0.00651422
-0.00275711
0.00977485
-0.00184021
0.00402719
-0.00218699
0.00191211
-0.0063876
0.00447549
0.0137561
0.00178635
-0.0155425
0.0046152
-0.011596
0.00698085
-0.00436061
-0.00197831
0.00633891
-0.00507461
0.00491305
0.000161566
-0.0486096
0.0667682
-0.0181586
0.00486287
-0.00852754
0.00918399
-0.00207364
-0.00711035
0.000683677
0.0526387
-0.0411796
-0.0114591
0.00456226
0.00299047
-0.00755274
0.00672762
-0.00216538
0.00770929
-0.00471885
0.00881479
-0.0210982
-0.045166
0.0268877
0.0182783
0.0384373
-0.0147385
-0.0236988
-0.019467
0.0225594
-0.00309232
0.0187142
0.000235061
-0.0189493
0.00821851
0.00492174
0.00966087
-0.00654963
0.0114714
-0.0276649
0.0126026
0.0150622
0.00937282
-0.00936188
-1.09451e-05
0.00459961
0.00477321
-0.0066369
-0.0031895
0.0098264
0.00470852
0.00477541
-0.0088354
-0.00158247
-0.00573094
0.00731341
-0.00879443
0.00486027
0.00393416
-0.0103769
0.00350052
-0.0109881
0.00748761
-0.00943512
0.00791548
0.00151965
-0.00593461
0.00424482
-0.00754193
0.00329701
0.0021922
-0.00864651
0.00645431
-0.00310975
0.00310973
-0.00231383
0.00876839
-0.00645456
0.00351282
0.00556803
-0.00908085
0.0200133
0.0197815
0.00190252
0.00796437
-0.00986689
-0.00308241
0.00308243
0.00290278
0.00415942
-0.00311053
0.00601332
-0.00835663
0.0102512
0.00163719
-0.00602143
0.00438425
0.00598402
-0.0018852
-0.00409881
0.00762121
0.00384814
0.00271802
-0.00656617
-0.00351484
0.00651031
-0.00299547
-0.00667724
0.00534282
0.00133444
0.00703984
-0.00151479
-0.00552504
-0.00591661
-0.00473404
0.0106506
-0.009736
0.00115208
0.00464473
-0.00579681
-0.00722364
0.0187575
-0.0115341
0.00100091
0.00604141
-0.00704232
0.00671012
-0.00570921
0.00227936
-0.00227939
0.00871012
0.00244543
-0.0111556
0.00480807
0.00390206
-0.00584094
0.00828636
0.00996324
-0.00884504
0.00245319
0.00728788
0.00943335
0.00748877
0.00896694
-0.00646392
-0.00250302
0.00105941
-0.00839246
0.00733304
0.00816744
-0.00710803
-0.000519465
0.00682171
-0.00630224
0.00515941
-0.00567887
0.00491346
0.000747064
-0.00566053
0.017798
-0.0161861
-0.00161188
-0.00846079
0.0194395
-0.0109787
0.0276908
-0.0117234
-0.0159674
0.0266224
0.00106844
0.0204365
-0.00923048
0.0020157
-0.000927903
0.00821574
-0.00728784
0.006479
-0.00730745
0.000828447
0.0100973
-0.00775544
0.00288462
-0.0101369
0.0129819
0.00214908
-0.00214913
0.00374197
-0.0057072
0.00196521
-0.00605262
0.00876976
0.00891782
-0.0111177
0.0222699
-0.0088709
0.00758679
-0.0235542
-0.0324251
0.00955897
-0.00365668
-0.00590229
0.00165633
-0.00781003
-0.000892037
0.00870214
-0.00876785
0.00829977
0.000468186
0.0316031
0.000940182
-0.00490337
0.00490341
-0.00500326
0.00612452
-0.00655102
0.00419892
-0.0300371
0.000234878
0.0298023
-0.013595
-0.016442
0.0317084
-0.0314736
0.00586675
-0.00586735
-0.0172837
-0.00814351
0.0254274
-0.0241179
0.0154157
0.00870223
0.00149561
-0.00149565
0.00351382
-0.00351421
0.00595081
-0.00101287
0.00375653
0.00219177
-0.00594829
0.00450145
0.00449994
0.00585112
0.000861693
-0.00671282
0.00175504
0.00473019
-0.00648524
0.000689779
0.0062247
-0.00691449
-0.0374295
0.0201458
0.00394352
0.00286009
-0.00680361
0.00509965
-0.00719032
0.00209068
-0.00428205
0.00573061
-0.00144854
0.000817612
0.00673645
-0.00500185
-0.0017346
0.00395038
0.00278608
-0.00655188
0.0011076
-0.00254849
0.00254821
-0.0223184
0.0397164
-0.017398
-0.0307606
0.00817214
0.0225884
-0.026369
-0.00439155
0.0315878
-0.0234156
0.0069521
-0.00233071
0.000947662
-0.00671811
-0.00478919
0.0115073
-0.0116208
0.00755941
-0.0123486
0.02061
-0.013801
-0.00680896
1.44873e-05
-0.031253
0.017452
0.00761682
-0.00296262
-0.00215032
0.00215028
0.00758041
-0.0141301
-0.0103281
-0.00252427
0.0128524
0.0256524
-0.0323012
0.0066488
-0.0103396
0.035992
-0.00213245
0.00735319
-0.00522073
-0.00842879
0.00629632
-0.00224669
0.00650913
-0.00426238
0.00447599
-0.00563027
0.00115435
-0.0113276
0.0116605
-0.00717257
0.00217072
-0.00201316
-0.00624064
0.000289733
0.00874296
-0.0090327
0.00702307
-0.00673334
-0.0142967
0.0156536
-0.0013569
0.00570728
-0.014161
0.00845369
0.00771054
-0.00978418
-0.00245238
0.00245228
0.00101985
-0.00101988
0.0160061
-0.0122746
-0.00373153
0.00622926
-0.00615669
-7.25054e-05
0.00816148
-0.00193218
-0.00685194
0.00160527
-0.00333051
-0.00352143
-0.00727134
0.00291073
-0.0033224
-0.0070545
-0.00854086
0.000813335
-0.0051336
0.00432027
-0.0375617
0.0159133
0.0216484
-0.0280625
-0.00809898
-0.000754265
-0.00624092
0.00615458
0.000885271
-0.00307272
-0.0045371
0.00760983
0.00271314
0.0103112
-0.0130244
0.00846543
0.00282719
-0.0112927
0.0034538
-0.0061267
0.00267289
-0.00125988
0.00471368
-0.00274459
0.0080457
0.00772327
-0.000382973
0.0133693
-0.0129863
-0.0146797
-0.00158595
0.00158591
0.000163064
-0.00174905
-0.0122563
0.00784763
-0.00456043
0.00635411
-0.00179368
0.000912976
-0.0054734
0.00141998
-0.00142006
0.000895897
-0.0056382
0.0047423
-0.00382073
0.00681198
0.00799395
-0.00691221
-0.00108173