/*--------------------------------*- C++ -*----------------------------------*\
  =========                 |
  \\      /  F ield         | OpenFOAM: The Open Source CFD Toolbox
   \\    /   O peration     | Website:  https://openfoam.org
    \\  /    A nd           | Version:  6
     \\/     M anipulation  |
\*---------------------------------------------------------------------------*/
FoamFile
{
    version     2.0;
    format      ascii;
    class       volVectorField;
    location    "400";
    object      U;
}
// * * * * * * * * * * * * * * * * * * * * * * * * * * * * * * * * * * * * * //

dimensions      [0 1 -1 0 0 0 0];

internalField   nonuniform List<vector> 
29874
(
(7.56905 0.0653536 1.05039e-16)
(5.41885 0.0288909 -9.52411e-17)
(5.42358 -0.121067 1.78992e-16)
(7.10912 -0.0804604 -9.7836e-17)
(7.85445 -0.113503 0)
(7.4647 0.00823035 -9.87233e-17)
(4.80596 0.0964987 3.5639e-18)
(7.12413 0.01712 4.54207e-18)
(7.44857 -0.00443755 -9.05875e-18)
(7.1917 0.211734 -1.71988e-17)
(7.23318 -0.114055 0)
(7.26787 0.107163 -3.66139e-17)
(4.46601 -0.0543485 9.49829e-17)
(8.30884 0.0541423 0)
(6.76514 0.203832 1.06576e-16)
(6.64974 0.139016 0)
(4.29178 -0.0208651 0)
(7.84368 0.214573 -1.39448e-16)
(4.96165 -0.0407334 -1.32301e-16)
(7.99511 -0.069769 -6.72465e-18)
(7.1189 -0.0228903 3.95426e-17)
(7.071 -0.0258592 -8.30821e-18)
(7.0362 0.0565712 -1.11739e-16)
(7.52347 0.0347973 0)
(5.76112 0.293731 0)
(7.81276 -0.00504571 -2.85631e-17)
(7.99503 -0.0379803 -8.77843e-17)
(5.07402 0.119598 1.33063e-16)
(5.36015 0.124104 3.16047e-17)
(4.96542 -0.116958 4.5237e-17)
(8.08414 -0.0834871 -2.66754e-17)
(5.3297 -0.0983864 -2.5036e-16)
(7.875 0.0603751 0)
(5.2209 -0.0344747 -7.39041e-17)
(7.40898 0.120206 3.50761e-17)
(5.49628 0.10717 -1.97457e-17)
(7.05053 -0.0100745 0)
(7.29354 0.31179 -4.4511e-18)
(7.55653 -0.108235 -5.95586e-17)
(5.38437 0.0214822 0)
(7.00041 0.010236 -4.80908e-17)
(7.02991 -0.0200189 9.7762e-17)
(7.31016 0.00688619 0)
(5.63088 0.0451471 -1.85158e-17)
(8.03777 -0.119449 7.84459e-17)
(7.47477 0.0394854 0)
(4.77375 -0.151095 0)
(8.53375 0.044811 0)
(7.29681 -0.0587539 4.71387e-18)
(7.21292 -0.111541 -5.94044e-17)
(4.51005 0.141002 -9.70585e-17)
(7.91976 -0.0949467 0)
(6.81191 0.00157732 -4.41253e-17)
(6.63784 0.0731464 4.19008e-17)
(7.7033 0.163038 -1.8355e-17)
(7.74695 -0.00503652 5.15714e-17)
(4.68613 -0.078431 0)
(8.14506 0.0303608 0)
(7.12208 -0.0638691 0)
(7.04223 0.0829817 -2.97364e-18)
(7.27302 -0.129665 1.74648e-18)
(7.23818 0.0140421 -8.37509e-17)
(7.22336 -0.234138 -1.76857e-18)
(7.48721 0.0138919 0)
(5.81342 0.0534721 -3.4838e-17)
(7.48077 0.0277041 -4.01251e-17)
(7.79812 0.140813 -1.75187e-20)
(7.64666 0.0017615 6.87956e-17)
(7.69499 -0.0936304 3.5234e-17)
(7.54468 -0.0797113 3.38935e-17)
(8.25176 -0.13924 2.98343e-17)
(7.6148 0.0170327 4.19389e-17)
(7.53145 0.103898 -3.37925e-16)
(5.6534 -0.133112 4.19193e-16)
(7.07863 -0.127877 4.08162e-17)
(8.10261 0.1254 0)
(7.8379 -0.106482 -1.67227e-17)
(8.03901 -0.096196 1.68566e-17)
(5.02527 0.108747 6.46009e-16)
(7.39166 0.0893482 -1.79721e-16)
(5.37731 -0.0930999 -7.90675e-17)
(7.1454 -0.13409 1.45098e-18)
(6.96953 0.147347 0)
(7.42789 0.186993 -2.95231e-17)
(4.71064 -0.453564 0)
(5.15327 -0.307877 -3.94826e-17)
(7.36156 0.00634287 -6.10263e-18)
(7.03382 0.0379281 3.97961e-17)
(7.96117 -0.098584 9.39841e-17)
(7.56521 -0.0561808 5.0114e-17)
(3.95394 -0.765655 -4.28881e-18)
(7.00678 0.0735117 5.51622e-17)
(6.95922 0.124421 -3.19448e-17)
(7.50707 -0.0285011 3.12032e-17)
(7.27229 -0.119984 0)
(6.70221 0.082158 0)
(7.15714 -0.224792 -1.30432e-17)
(4.72758 -0.104437 8.62466e-18)
(3.65729 -0.631524 -2.09988e-17)
(6.38255 -0.0413922 1.35408e-17)
(7.52214 0.046576 3.85018e-18)
(7.01919 0.0896885 1.81522e-17)
(6.99135 0.0863528 0)
(7.37873 0.0733515 -8.28172e-17)
(7.12945 0.0860709 -6.2108e-17)
(3.69871 -0.471987 3.85006e-17)
(4.07162 -0.591031 -2.91967e-17)
(7.54368 0.0135346 3.91812e-18)
(7.63319 0.0179585 0)
(7.29699 -0.123845 -5.90795e-18)
(4.02989 0.0189448 -2.66959e-17)
(7.96386 -0.162617 8.13778e-17)
(8.02261 -0.162868 -8.72865e-17)
(6.97028 0.114138 0)
(6.97581 0.126401 0)
(6.98548 0.097582 -6.6253e-17)
(6.94152 -0.316763 7.46564e-18)
(7.2794 -0.189963 9.56609e-17)
(-0.204511 -0.0392886 -1.53102e-16)
(7.04563 0.0805252 2.72685e-17)
(6.9788 0.122332 4.77643e-17)
(8.22716 -0.176627 -1.13902e-16)
(7.26059 -0.0961608 -2.10588e-19)
(7.18111 -0.122076 6.6724e-18)
(7.31478 -0.126511 1.12081e-17)
(6.66672 0.138651 -4.56216e-18)
(7.48938 -0.130297 0)
(7.21105 0.227417 -2.2089e-17)
(7.02888 0.101551 -5.36537e-17)
(6.6164 -0.29665 3.98422e-17)
(6.99955 0.0067374 0)
(6.80907 -0.280752 2.79382e-17)
(7.17954 -0.13342 -5.03039e-17)
(7.08148 0.0914948 1.14341e-16)
(7.29193 0.114356 5.04314e-17)
(7.11322 0.0529936 -3.63017e-17)
(7.25547 0.116319 8.43092e-17)
(7.04393 0.0139847 -9.59812e-18)
(7.34122 0.263213 8.35633e-19)
(7.14516 -0.15914 5.91015e-17)
(7.75168 -0.262803 -6.44276e-18)
(7.80811 -0.0350855 0)
(7.06258 -0.194893 -2.44053e-17)
(7.47774 0.264475 -2.52829e-17)
(7.21449 -0.0598721 -6.68848e-17)
(7.15131 0.185716 -8.58077e-18)
(7.36408 0.0319539 4.77318e-17)
(7.31433 0.0696908 6.71521e-17)
(7.0034 0.00631882 -2.92414e-18)
(6.66166 0.128098 -7.01973e-18)
(7.8173 0.101874 3.19082e-17)
(7.89754 -0.103662 1.21787e-17)
(6.51219 0.199335 0)
(6.92833 -0.0844611 1.5915e-17)
(7.43334 -0.0663851 2.52858e-17)
(7.02547 0.0573156 4.38809e-17)
(7.10287 -0.0282315 2.22074e-17)
(7.70851 -0.168701 -3.55152e-17)
(7.945 -0.0822505 3.70221e-18)
(7.96524 -0.117122 0)
(7.71782 -0.122204 -6.78874e-17)
(7.26088 0.0948855 1.89129e-16)
(6.93456 0.146821 -6.3678e-16)
(7.70123 -0.168985 0)
(7.81317 -0.177048 0)
(7.7968 -0.155173 6.43263e-18)
(7.73542 -0.167997 0)
(7.20881 -0.0830571 0)
(7.09797 -0.031746 -5.74211e-17)
(7.5472 -0.183822 1.84585e-17)
(7.80544 -0.111879 0)
(7.72353 -0.158864 0)
(7.63936 -0.12461 -1.03501e-17)
(4.50216 -0.120594 -3.64488e-17)
(4.20901 -0.0070569 7.13972e-18)
(7.54257 -0.137775 0)
(7.35497 -0.163152 1.37217e-17)
(1.43187 -0.119187 -3.31317e-17)
(6.96452 0.00841438 -1.58077e-16)
(6.8175 -0.0399263 8.00662e-17)
(1.37419 -0.0801483 0)
(1.36406 0.0279678 0)
(4.99452 -0.079035 -1.9669e-18)
(6.93773 0.101462 -3.40397e-17)
(6.61576 -0.0570064 2.14424e-18)
(8.21768 0.0610819 -3.37689e-17)
(7.02838 0.124556 -1.70433e-17)
(7.01852 0.107207 -8.22545e-19)
(7.03201 0.076048 -6.46388e-18)
(6.98418 0.118954 2.52728e-17)
(6.98678 0.093989 1.81135e-17)
(8.31199 -0.116525 9.60538e-17)
(6.94079 -0.140636 7.57758e-17)
(6.76628 -0.230197 -4.00765e-17)
(5.21562 0.0238995 -4.64704e-17)
(7.08036 0.0647188 2.53606e-17)
(7.04187 0.0887909 5.33895e-17)
(7.60931 0.15305 0)
(1.44252 0.0221339 5.01559e-17)
(1.86349 0.0187724 0)
(7.73096 0.187545 4.5146e-18)
(8.05555 -0.0598446 0)
(7.64011 0.445171 -1.71595e-17)
(7.60683 0.273363 -1.50205e-16)
(6.98168 0.0806226 0)
(6.80397 0.0993334 5.04094e-17)
(6.90676 0.079801 7.4249e-17)
(7.3573 0.0847048 3.05753e-16)
(7.13727 -0.189526 -5.42699e-17)
(6.93901 -0.259725 -2.98882e-17)
(7.12591 -0.0166522 4.85878e-17)
(7.31483 0.02398 -3.42571e-17)
(6.41587 -0.166057 -6.38097e-17)
(6.82355 0.0721993 -1.4428e-16)
(7.2656 0.206386 2.38858e-17)
(7.22566 -0.218068 -4.71626e-17)
(7.31215 -0.18449 -3.40655e-18)
(7.2523 -0.152873 -1.94301e-17)
(7.32643 -0.129098 1.26331e-17)
(7.49899 -0.137561 0)
(7.65001 0.00183607 -9.37438e-17)
(8.27569 -0.0617161 -3.11598e-17)
(6.91658 0.00619486 5.50052e-17)
(7.44266 -0.0668804 -4.15006e-18)
(7.0014 0.0511024 -8.12142e-17)
(7.31746 0.0513859 0)
(7.60207 -0.017138 4.11647e-19)
(7.4538 -0.123725 -4.08522e-19)
(7.79074 0.160145 -2.00913e-17)
(6.98904 0.21957 -2.50438e-17)
(7.00376 0.0220131 0)
(7.00165 0.0426697 6.66495e-17)
(7.45323 -0.0797614 -1.46916e-17)
(7.29176 -0.0518957 1.36824e-17)
(6.83793 -0.109611 4.15229e-17)
(6.96829 -0.0982567 0)
(6.5527 -0.264162 0)
(7.80982 -0.107391 -2.16547e-17)
(7.63397 -0.125973 1.05819e-17)
(7.86166 0.0831078 -9.83402e-18)
(8.05628 -0.0725282 5.97381e-17)
(2.36326 0.946291 -7.56369e-18)
(3.20097 -0.541838 7.49379e-18)
(5.92061 2.4952 -3.13502e-18)
(6.17923 2.58835 0)
(3.1844 -1.41532 1.33051e-17)
(3.11044 -1.39148 1.39236e-17)
(6.83136 -2.89102 2.94327e-18)
(6.61059 1.0929 1.75563e-17)
(7.45811 -1.89516 1.34663e-19)
(4.36391 -0.817104 -2.119e-17)
(6.5888 1.60733 1.04211e-18)
(5.84838 -1.44546 -8.98349e-18)
(3.52519 -1.27756 0)
(7.19529 -0.317231 -1.22304e-18)
(3.41786 -0.529258 -2.21593e-17)
(3.3859 -1.94083 -8.42395e-19)
(-0.057905 -0.13506 2.86521e-16)
(7.48669 -1.8459 1.60926e-19)
(4.1015 -0.388302 1.33098e-18)
(4.93621 -2.71956 1.12029e-18)
(3.69995 -0.960468 -2.13111e-19)
(3.38256 -2.00837 0)
(5.38055 -2.39524 1.26908e-18)
(5.73579 -2.54182 4.20827e-18)
(5.63112 -3.04971 1.78575e-18)
(5.74959 -3.03083 -1.16834e-18)
(6.20964 2.21351 -2.15723e-18)
(6.13536 2.34232 2.3566e-18)
(0.387271 -0.191028 0)
(3.32471 -1.3936 2.7195e-18)
(3.24634 -1.33792 -1.9119e-17)
(5.15418 -0.984738 1.05136e-17)
(6.08296 -1.52332 -6.35337e-18)
(6.68538 2.74727 4.13766e-19)
(5.70049 2.68251 2.06517e-19)
(5.01081 -3.6626 1.50775e-18)
(1.51635 0.581252 -1.37723e-17)
(5.89699 2.39811 -4.14507e-18)
(6.85082 -2.42105 0)
(6.93699 -2.33839 1.49085e-20)
(6.84989 1.72177 4.10572e-19)
(6.77239 1.72312 0)
(6.43471 1.9517 -2.87765e-18)
(6.48802 1.99702 0)
(6.26373 0.330148 0)
(6.67332 1.81646 -1.75298e-18)
(6.73591 1.81212 1.51829e-18)
(3.42835 -0.65384 3.05861e-17)
(3.52332 -0.700375 3.01019e-17)
(5.6008 2.58787 -3.59103e-18)
(5.85993 2.63163 0)
(5.86125 2.63244 0)
(6.58868 -2.41497 2.64786e-18)
(6.51452 -2.66932 4.70872e-18)
(3.72506 -1.26605 0)
(3.84972 -0.973686 0)
(4.9269 -3.15845 1.65508e-18)
(5.66191 -1.24858 2.16915e-17)
(5.40705 -1.15494 -5.70777e-18)
(4.94083 -0.957788 -1.91813e-17)
(2.88099 -2.42898 1.76077e-18)
(6.2397 2.12754 0)
(3.04567 -1.96681 -2.15455e-18)
(5.87306 2.63512 5.83549e-19)
(5.85745 2.64397 -7.27906e-19)
(3.37719 -1.3037 9.77414e-18)
(6.86457 -0.411204 0)
(4.88041 -3.26256 0)
(3.56553 0.0652106 0)
(5.91226 -3.53444 1.36595e-18)
(5.88281 -3.47234 -6.70262e-19)
(4.93289 -3.35305 0)
(5.00921 -3.34752 -2.79601e-18)
(4.92359 -3.48743 1.48881e-18)
(3.72704 -1.00762 7.04896e-19)
(3.68017 -1.16037 -1.83869e-21)
(6.95853 -3.34956 -1.72085e-19)
(6.12953 2.21196 3.77438e-19)
(6.08722 2.29239 5.83623e-18)
(5.7369 -2.7322 2.35685e-18)
(6.37062 -3.5709 0)
(3.30894 -1.53254 -7.4275e-18)
(3.29342 -0.384627 0)
(6.0211 2.28327 -6.28116e-18)
(5.9929 2.32527 0)
(5.9928 2.20556 0)
(7.06388 0.241585 -1.11917e-17)
(3.8146 -1.04933 -1.94038e-18)
(3.75511 -1.19321 -2.11198e-18)
(6.59822 0.47022 -8.21868e-17)
(6.70734 0.359472 -5.21149e-17)
(4.62206 0.683177 9.45992e-19)
(4.74259 0.941336 -1.14396e-18)
(5.94356 -3.41977 0)
(5.16891 -3.03953 1.80316e-19)
(6.20067 2.47001 0)
(6.28673 2.41158 0)
(6.24584 2.38678 0)
(6.25419 2.48773 0)
(3.23589 -1.23065 -5.48464e-18)
(4.8435 -3.54174 0)
(3.25194 -0.553163 1.00498e-17)
(3.31894 -0.55047 -6.43847e-18)
(3.29594 -0.475815 -1.76087e-17)
(3.2789 -0.593891 -5.17083e-18)
(6.37401 2.29268 6.21097e-19)
(6.32068 2.26073 4.45857e-18)
(6.12601 -3.50137 1.32865e-18)
(5.87373 2.6424 5.51332e-19)
(6.61945 1.49628 1.13818e-17)
(7.46202 -0.388824 0)
(6.57024 -2.08526 1.12248e-17)
(6.55847 -2.28096 2.46818e-18)
(6.36 -1.85818 0)
(7.16479 -0.347227 8.93026e-19)
(3.43826 -0.413233 0)
(3.46421 -0.200246 0)
(5.80862 -0.862448 0)
(0.201373 -0.0346025 1.4844e-16)
(5.68108 -2.11379 -3.36091e-19)
(2.96005 -1.88297 -1.13326e-18)
(6.24979 -2.13898 0)
(3.26699 -0.694969 4.58535e-18)
(3.25301 -0.888102 9.91568e-18)
(5.86166 2.63237 -1.32597e-19)
(5.8669 2.63564 -2.17275e-20)
(5.85725 2.6256 1.90615e-19)
(6.20248 0.279339 -8.02361e-17)
(3.62822 -0.249256 3.00994e-17)
(3.51031 -0.395217 2.1683e-18)
(3.64139 -0.398922 -3.30905e-17)
(3.53011 -0.238925 -2.27743e-18)
(6.99 0.163158 2.52923e-17)
(7.11652 -0.251063 -2.1153e-18)
(3.66417 -0.186562 -2.42448e-17)
(3.92314 -0.0526573 -5.75441e-18)
(3.89233 -0.211613 1.06216e-18)
(3.81034 0.469628 0)
(3.99082 0.237912 2.57869e-17)
(3.17149 -1.21694 0)
(3.16095 -1.12277 3.22932e-21)
(6.68566 -0.604837 7.12165e-18)
(6.72225 -0.38566 3.07636e-18)
(6.11963 2.39416 -6.08877e-19)
(6.16428 2.45723 6.40829e-19)
(4.26741 -0.410894 1.31912e-17)
(6.34146 2.41603 0)
(6.37615 2.35804 0)
(6.37232 2.49913 0)
(6.1689 -2.7534 4.45116e-18)
(6.43992 -2.77053 0)
(3.13334 -0.522024 -6.41595e-18)
(6.13169 -2.26156 -4.19859e-18)
(5.84161 -2.42783 4.60005e-18)
(6.08467 -3.56583 0)
(5.97694 -3.52104 -1.4532e-18)
(6.07422 -3.51223 5.49802e-20)
(5.99005 -3.59251 0)
(6.72919 0.260699 0)
(5.64517 -2.89595 -1.91373e-21)
(5.77046 -2.97107 1.09633e-18)
(5.77294 -2.8251 -1.21007e-18)
(6.49588 -0.463876 -3.89764e-17)
(6.52203 -0.584376 5.28712e-17)
(6.57894 -0.397949 -5.98281e-17)
(3.31877 -0.338373 5.54419e-18)
(3.399 -0.247763 -5.68219e-18)
(3.34085 -0.244067 -2.8754e-18)
(3.38777 -0.345008 2.75328e-18)
(4.46806 -0.499601 -3.09473e-17)
(4.25557 -0.606807 1.07925e-18)
(4.37317 -0.624744 0)
(4.40832 -0.403641 1.88621e-17)
(6.8355 0.542029 2.19084e-17)
(2.58553 -2.95867 2.62588e-18)
(2.71648 -2.84289 1.07862e-18)
(3.49551 -1.84988 6.79157e-20)
(3.35506 -1.88095 -5.21181e-18)
(3.31476 -0.22001 -5.03395e-18)
(3.32286 -0.110664 5.41691e-18)
(3.2386 -0.239982 0)
(4.22964 0.353708 0)
(3.99003 0.615622 9.03254e-18)
(4.41479 -0.326542 0)
(4.22193 -0.12651 0)
(4.15128 -0.308235 0)
(4.42898 -0.200969 0)
(6.91595 -2.19503 4.39596e-20)
(6.91936 -2.24692 0)
(5.30066 -2.82695 1.14884e-18)
(5.38583 -2.93328 0)
(5.48052 -2.86149 1.62975e-19)
(5.23991 -2.86457 -3.30072e-18)
(4.80318 1.09437 0)
(5.31956 -2.47758 -4.91983e-18)
(5.07204 -2.63286 0)
(5.16925 1.90342 -4.99911e-19)
(4.81175 1.06378 0)
(3.84074 -0.462517 -2.40197e-17)
(4.06354 -0.321615 0)
(3.92346 -0.278535 0)
(4.04128 -0.463045 2.94887e-17)
(3.54327 -1.18852 4.16849e-17)
(3.48996 -1.31138 -1.49596e-17)
(6.93123 0.129687 -5.34149e-18)
(6.60989 -0.091293 9.26606e-17)
(6.57464 -0.199371 0)
(6.52811 -0.161737 9.19052e-17)
(6.64944 -0.173433 0)
(3.49373 -1.08467 -1.80441e-17)
(3.56322 -0.951466 0)
(3.38683 -1.04574 0)
(4.52958 -1.16474 -2.52132e-17)
(4.69322 -0.804129 -1.13284e-17)
(4.51707 -0.898291 1.16692e-17)
(5.40227 -3.09008 9.59405e-19)
(5.39016 -3.00235 1.59145e-18)
(5.50347 -3.02557 -9.41946e-19)
(5.31459 -3.03812 -2.03159e-18)
(6.06968 -2.70058 -5.77613e-18)
(5.85341 -2.57446 -3.7242e-18)
(6.08705 -2.60768 1.28794e-18)
(5.82995 -2.68043 -2.78868e-18)
(3.45102 -1.62073 0)
(3.42444 -1.69987 0)
(3.40277 -1.58658 -2.15435e-19)
(5.67806 2.71226 1.0041e-19)
(7.39595 -0.184626 -2.54339e-17)
(7.22146 -0.21646 2.78946e-18)
(7.29152 -0.208545 1.58132e-17)
(7.32538 -0.186593 -1.01819e-17)
(5.81099 2.78672 -4.44205e-19)
(5.29321 -0.232132 5.15442e-17)
(5.93822 2.4153 -2.1116e-18)
(5.9414 2.46468 -9.97275e-19)
(5.99807 2.37945 1.75562e-18)
(3.54243 -1.43549 0)
(3.46819 -1.58289 0)
(3.71024 -1.45663 2.60848e-17)
(5.83928 -1.27074 3.71863e-18)
(3.6994 0.248198 0)
(3.85216 0.248163 2.45601e-19)
(3.78835 0.175976 0)
(3.7694 0.368761 -1.0639e-17)
(6.93329 0.414268 3.00599e-17)
(3.26069 -0.968031 2.87981e-18)
(3.17178 -1.07503 -6.53147e-18)
(3.18129 -1.00476 3.45261e-18)
(3.25857 -1.06121 0)
(8.01792 0.19294 -5.25762e-17)
(0.0464242 0.0415861 4.81406e-16)
(7.7232 -0.307264 4.12926e-17)
(8.05963 -0.0269067 0)
(2.00855 -0.171063 -2.52465e-17)
(7.07862 0.279452 -6.24249e-18)
(4.65913 0.0622418 -5.86454e-17)
(6.99726 0.0204714 5.36596e-17)
(7.00698 0.103742 -3.39991e-17)
(7.00632 0.0793978 -6.76228e-17)
(7.96684 -0.20347 0)
(3.89684 -0.382193 -3.9888e-18)
(6.76208 0.264398 0)
(6.80629 0.220626 2.00206e-17)
(5.85458 -0.0775105 0)
(6.33096 0.149189 -9.32624e-17)
(6.22155 0.189365 4.99122e-17)
(6.53265 0.0474289 2.64138e-17)
(6.46099 0.0860811 0)
(3.83191 -0.373993 5.86817e-18)
(6.92033 0.167135 -5.0671e-17)
(6.89822 0.199055 -5.44989e-17)
(5.44667 -0.252152 -3.1973e-17)
(6.95599 0.283645 2.24936e-17)
(6.94472 0.333959 1.4281e-17)
(3.45771 0.660778 1.71235e-17)
(7.00893 0.0726007 5.9787e-17)
(7.67295 0.324085 -1.76564e-17)
(-0.267524 -0.106638 -1.45417e-16)
(6.99712 0.139029 -2.34535e-18)
(6.96948 0.220037 3.62495e-17)
(7.18324 0.273399 0)
(5.48309 -0.412268 -6.32803e-17)
(7.41287 -0.184073 8.98273e-17)
(3.79891 -0.358685 3.06854e-18)
(4.00579 -0.340548 -1.3812e-17)
(6.87659 0.851736 1.61532e-17)
(7.01136 0.113918 4.49764e-17)
(7.33879 -0.225386 -2.37273e-17)
(7.39149 -0.239122 -8.21397e-17)
(7.34366 -0.287323 2.70666e-17)
(7.62728 -0.176076 3.9795e-17)
(6.6382 -0.433859 6.77511e-18)
(6.6241 -0.54132 -9.34231e-18)
(7.17763 -0.173539 1.17845e-18)
(7.16925 -0.214907 1.48525e-17)
(7.05011 0.200905 -2.3511e-18)
(6.41675 -0.333241 -6.80467e-17)
(6.78099 -0.439983 0)
(6.76099 -0.562068 0)
(6.931 -0.132598 -8.08361e-18)
(6.80802 -0.130271 0)
(-0.253605 -0.0904687 0)
(3.84407 0.639977 9.8248e-18)
(7.57019 -0.133339 3.07374e-17)
(7.65363 -0.109538 5.56298e-18)
(7.24134 0.386081 1.75891e-19)
(7.11852 -0.207012 0)
(7.19982 -0.176018 0)
(6.70746 0.20493 -1.84169e-17)
(7.5654 -0.338259 0)
(7.00248 0.0662905 -2.90612e-17)
(6.99721 0.0824523 1.05816e-16)
(7.00865 0.170822 4.76752e-18)
(6.45559 -2.14658 8.271e-18)
(6.37438 -1.89971 -6.71873e-18)
(6.31247 -1.8065 6.06703e-18)
(5.71085 0.0123361 3.90759e-17)
(7.00898 0.145869 0)
(4.95153 -0.109575 -2.22844e-16)
(7.37857 -0.311852 0)
(6.5866 -0.0468662 -2.77111e-17)
(6.29196 -0.0559273 1.37899e-17)
(6.14436 -0.0598093 1.3163e-17)
(7.10173 0.319624 -1.62376e-17)
(3.92694 -0.713809 0)
(7.4676 -0.331934 7.76823e-18)
(7.42779 -0.303239 -3.69264e-17)
(4.82264 -0.236417 0)
(5.0073 -0.224119 0)
(3.138 -0.980235 9.1338e-20)
(7.78965 0.222789 -8.73399e-18)
(7.22269 0.216927 -3.21171e-17)
(7.28956 -0.0286352 0)
(8.35116 -0.0485333 -9.83266e-17)
(7.15074 0.35512 0)
(7.11824 0.314832 8.24089e-18)
(6.94535 0.182053 -3.88143e-17)
(4.81012 -0.594484 0)
(8.13823 0.10566 -3.6987e-17)
(7.92574 0.181913 -7.81281e-17)
(6.00119 -0.0346809 4.86886e-17)
(5.84662 0.0300032 -5.7099e-17)
(7.33857 0.0903902 -4.9672e-18)
(6.31257 2.10872 1.82197e-18)
(6.35285 2.00444 -1.98988e-18)
(5.76155 -0.133456 -2.30868e-17)
(7.00062 0.0200706 0)
(7.05308 -0.326002 -2.02471e-18)
(7.11952 -0.251802 -2.01554e-18)
(7.06686 -0.28197 0)
(8.12281 -0.0196942 1.18044e-17)
(8.04724 0.0386271 -2.36515e-17)
(4.05318 0.354394 0)
(3.95211 0.499862 1.96212e-17)
(6.3571 2.15612 3.21511e-18)
(6.45091 2.10418 -2.97031e-18)
(6.8083 0.0233324 1.48408e-16)
(6.59476 0.0210134 5.45057e-17)
(-0.1516 -0.0361113 2.0247e-17)
(5.14968 -0.0494856 1.79066e-17)
(7.07086 -0.00846062 -8.51303e-17)
(6.95052 0.125284 -4.34598e-17)
(6.88329 0.143926 7.19455e-17)
(6.83515 0.175287 -6.09748e-17)
(7.00924 0.0526209 0)
(7.00194 0.0417871 -1.55475e-17)
(6.99717 -0.36596 2.03209e-18)
(6.99505 -0.311954 -7.48764e-18)
(7.06237 -0.268633 0)
(3.74041 -1.3702 -2.85795e-17)
(3.65499 -1.20311 -8.05268e-18)
(3.74004 -1.08051 0)
(6.8888 0.162901 -7.52771e-17)
(6.85241 0.227857 -4.166e-17)
(6.87533 0.196496 5.11351e-17)
(6.82323 0.241412 6.78515e-17)
(7.80528 0.338434 9.39466e-17)
(7.76162 0.295452 -4.0617e-17)
(7.8108 0.224534 0)
(6.73668 -0.072528 3.3048e-17)
(3.20645 -1.54292 -7.29961e-18)
(6.62921 0.080558 -2.64813e-17)
(6.59073 0.127019 4.55633e-18)
(6.96576 0.0414063 1.15115e-16)
(7.28937 -0.0963592 1.3814e-16)
(3.73567 -1.62832 0)
(3.55316 -1.70883 4.71186e-18)
(5.68679 -0.118148 -9.21639e-17)
(5.52287 -0.14086 3.81905e-17)
(7.40113 0.0897553 0)
(6.86984 -0.0891974 8.68013e-17)
(7.54692 0.0651314 -4.79189e-17)
(7.36701 -0.173439 0)
(6.70712 -2.64248 5.55872e-18)
(6.71362 -2.48616 -5.63731e-18)
(5.1232 -0.0272204 0)
(5.28307 -0.0793759 -4.9263e-17)
(5.426 -0.00811457 3.34654e-17)
(4.31543 0.176206 0)
(4.46673 0.139434 2.16528e-17)
(6.86289 0.260975 -1.75783e-17)
(6.85009 0.300501 -1.62195e-17)
(6.82178 0.312973 0)
(7.96121 -0.189085 -6.95883e-17)
(7.05451 0.00881068 0)
(6.96922 -0.00653609 -4.78736e-17)
(6.53195 -0.0336563 -1.69e-16)
(6.37599 -0.115664 0)
(6.4388 -0.0352176 1.01384e-17)
(7.10982 0.245093 1.06408e-17)
(7.1133 0.280464 2.2382e-18)
(6.26295 -0.100863 0)
(6.23933 -0.00465336 -2.49646e-17)
(6.12929 0.0429252 -1.14639e-16)
(7.01323 0.0288692 0)
(7.53086 -0.309553 0)
(7.66382 -0.267609 0)
(7.66875 -0.243255 0)
(0.104528 0.0151782 -1.19913e-16)
(3.61895 0.605095 -4.83817e-18)
(7.20528 -0.243829 0)
(7.16449 -0.288412 5.10721e-18)
(7.11733 -0.280748 -3.17837e-18)
(3.76803 -0.790186 6.05387e-18)
(3.69059 -0.941085 0)
(7.71695 -0.123055 -7.1699e-18)
(7.97089 0.0696864 5.71536e-17)
(7.71185 0.146291 0)
(8.58782 0.337288 7.80739e-19)
(8.49804 0.388588 0)
(5.94558 0.523003 8.55746e-20)
(5.92416 -4.09111 1.34843e-20)
(6.65216 0.531369 -7.79177e-17)
(4.27407 0.0977597 1.03521e-18)
(6.19711 0.584077 -2.59471e-20)
(3.19694 0.369546 6.7373e-18)
(3.54647 -1.17505 0)
(5.62119 2.91434 5.108e-19)
(5.75053 -3.33809 0)
(5.78046 -3.39715 0)
(6.87625 -3.52794 0)
(5.7906 2.69311 0)
(5.78262 2.70869 4.72124e-20)
(5.88694 2.72475 0)
(5.90282 2.72746 -2.03454e-21)
(6.1067 -0.138848 0)
(7.17547 -0.276395 -1.77563e-19)
(7.02059 -2.59091 0)
(2.9458 -2.51864 9.10964e-19)
(4.21979 -0.416165 1.34856e-19)
(6.4041 -2.65157 4.24065e-20)
(6.44065 -2.68951 -5.26943e-20)
(6.61568 -3.69362 -1.29131e-19)
(6.63405 -3.71091 0)
(6.43934 0.435957 0)
(7.01004 0.657494 0)
(1.3713 -1.44605 4.31512e-17)
(3.09756 -0.0067636 -2.26175e-18)
(2.45505 -2.99262 -4.77796e-18)
(2.39412 -2.93773 0)
(5.8929 2.65083 9.93835e-20)
(6.76294 0.164635 0)
(6.73803 0.217143 0)
(5.08875 0.270378 0)
(2.70051 -2.74818 0)
(6.87298 -0.151717 -4.47006e-21)
(2.75834 -0.848454 -5.22402e-18)
(6.38808 0.839558 -1.01519e-20)
(2.88481 -2.21638 -1.22124e-18)
(6.07764 -0.11717 -7.8397e-23)
(4.78214 0.84531 0)
(4.7478 0.817325 0)
(5.90602 2.74494 0)
(7.25418 -0.348667 -1.97929e-19)
(6.2869 -3.84135 6.98978e-19)
(2.58755 -3.39139 1.48422e-18)
(2.65992 -3.18947 1.41561e-20)
(6.4583 0.428424 0)
(7.70494 -0.924877 0)
(5.57917 2.92972 -1.30558e-18)
(5.5493 2.90135 0)
(6.23668 3.09449 2.34849e-19)
(6.78356 -0.791963 1.77388e-17)
(7.08764 0.00503416 0)
(6.61633 0.370383 9.60071e-21)
(6.79358 -0.890841 1.92123e-17)
(5.52988 3.16951 -2.15053e-20)
(6.86752 -2.55871 -4.77947e-20)
(6.86102 -2.51923 5.84141e-20)
(6.74395 -3.46488 6.22067e-19)
(6.75054 -3.43638 2.21495e-18)
(6.80357 0.0334792 -7.15854e-21)
(6.8309 -0.0359067 -1.20295e-21)
(7.66846 -0.571304 7.10617e-19)
(5.78298 2.73219 0)
(5.78189 2.7193 -4.35742e-20)
(7.60304 0.818244 1.08653e-18)
(6.24204 0.260576 2.17737e-20)
(5.31376 -4.14327 1.84613e-18)
(5.68347 -3.15796 -2.15913e-18)
(5.43369 2.86519 -6.78399e-20)
(6.57091 -2.77631 1.28786e-20)
(7.15847 -0.390858 0)
(6.1416 -2.4894 4.27941e-18)
(5.79644 0.810633 -5.73335e-18)
(6.44289 -2.11048 0)
(5.62587 -1.62115 2.11831e-17)
(7.82705 -0.120843 2.13333e-20)
(3.92751 2.53003 -1.45678e-18)
(5.48541 2.37695 1.86149e-18)
(5.45284 2.3276 -1.82387e-18)
(6.50474 0.640346 0)
(3.48701 -1.36252 -2.0007e-19)
(3.42532 -1.52585 -1.87991e-19)
(5.85132 2.65207 2.87957e-19)
(6.47338 -2.76855 3.6268e-20)
(5.31299 2.05713 -9.83327e-20)
(3.18025 -0.158954 6.4798e-18)
(3.23885 -0.0061174 1.15523e-17)
(7.21954 -1.90982 1.32934e-19)
(6.0909 0.189531 7.34735e-20)
(6.09776 0.234772 -1.17847e-19)
(5.70881 -4.25427 -9.19581e-19)
(5.6249 -4.31783 -2.24257e-20)
(7.33144 -0.110125 1.65873e-19)
(7.3041 -0.0435285 1.06926e-19)
(7.13915 -2.17844 0)
(6.70334 -0.266981 -3.75833e-20)
(5.07294 1.48384 5.4036e-19)
(5.02727 1.26721 7.1821e-19)
(6.2814 2.98664 1.82257e-20)
(6.71468 -0.0975068 1.25496e-20)
(4.71542 -4.24151 -1.06137e-18)
(5.69359 3.01039 5.93913e-19)
(5.76036 2.92962 1.09571e-19)
(4.26369 -1.06549 -7.67387e-19)
(4.51724 -1.18974 -3.50307e-19)
(7.50397 -1.38904 0)
(6.47621 -0.247383 9.41037e-20)
(6.97411 0.235037 0)
(6.96416 0.137842 6.19532e-20)
(6.32757 -0.126388 -1.22404e-19)
(3.5399 -2.04385 0)
(3.45135 -2.04557 0)
(6.1911 0.185856 1.61933e-20)
(7.0908 -0.477693 -3.46123e-20)
(6.87718 -3.39488 0)
(5.72286 0.602336 0)
(7.52271 -3.88095 0)
(6.08101 -4.13819 4.79792e-19)
(6.07765 -4.20007 8.44298e-19)
(4.40473 -0.586262 9.14739e-19)
(4.4016 -0.677267 -8.47302e-19)
(5.32472 -1.40093 -3.35315e-19)
(8.15615 -4.58601 8.51342e-19)
(7.75075 -2.99958 7.81517e-20)
(1.16382 -3.18429 5.1984e-18)
(7.83953 -4.04085 3.16366e-19)
(5.7902 2.88794 -8.11995e-20)
(6.07811 2.62101 5.62671e-19)
(7.23244 -1.23168 -1.27141e-19)
(7.29591 -1.2024 5.56307e-20)
(5.4294 2.75245 6.21073e-20)
(3.59937 -1.21457 7.73141e-19)
(3.35778 -3.02609 3.97636e-18)
(6.27034 0.540211 0)
(8.57063 -2.08634 1.62763e-18)
(6.73439 0.374265 3.38163e-20)
(6.97181 -1.75605 0)
(6.47486 -0.12142 4.23242e-20)
(6.13299 1.92833 8.00987e-19)
(6.0889 1.88056 -1.63243e-18)
(7.5395 -0.888913 1.96526e-19)
(7.50318 -0.809916 -3.49919e-19)
(6.23271 -3.00951 -2.17644e-19)
(4.54725 0.158859 -4.29942e-19)
(5.8421 2.60214 -1.83043e-19)
(5.83891 2.8459 -3.21498e-21)
(6.53197 0.547213 -2.84274e-21)
(5.95002 0.38285 8.02404e-20)
(6.64406 -0.199434 0)
(2.43646 -1.83519 0)
(3.6003 -1.07869 0)
(6.67938 1.42239 4.28093e-20)
(7.42767 -1.26667 1.12811e-19)
(7.08473 -2.18558 -8.56816e-20)
(6.97825 -2.24199 0)
(4.66047 -0.851238 -8.4806e-19)
(4.7329 -0.873217 0)
(4.41565 -2.89476 -2.88951e-19)
(4.48793 -2.93483 -7.64459e-19)
(6.72302 -1.70132 0)
(7.52032 -0.516612 0)
(7.49755 -0.469547 0)
(6.73011 -3.65363 0)
(6.66925 -3.69429 0)
(5.89209 2.58077 4.75825e-20)
(5.91534 2.75957 2.68023e-20)
(5.90994 2.78309 -1.2117e-19)
(5.84565 2.61403 -2.03672e-19)
(7.2544 -2.03154 1.44857e-19)
(7.16524 -2.12081 6.00376e-20)
(6.28525 3.02479 -3.86107e-20)
(5.80194 0.514783 0)
(5.92015 0.375822 1.64946e-19)
(5.93075 0.299542 7.47788e-20)
(6.67879 0.171758 -1.3042e-20)
(6.71686 0.209973 -4.7132e-21)
(7.26496 -3.33376 2.65979e-18)
(7.28892 -3.2746 0)
(5.88632 2.34255 -1.06532e-20)
(7.01983 -1.65939 4.92831e-20)
(7.01356 -1.74039 0)
(3.23261 0.470857 -7.08625e-18)
(3.20426 0.432737 8.05096e-18)
(3.23043 0.574078 -3.58976e-18)
(6.44766 -3.56094 8.14098e-19)
(6.16424 -1.13177 0)
(6.41049 -1.6562 0)
(5.92873 -0.329997 2.00378e-19)
(6.13607 -2.63493 0)
(4.59711 0.0440476 -4.50179e-20)
(4.61098 -0.114635 5.70569e-19)
(6.6152 -3.05205 3.04731e-18)
(7.18441 -1.23803 -1.47802e-19)
(5.81264 2.67569 -2.40942e-19)
(6.05788 1.74641 -1.82687e-20)
(7.67173 -1.17572 0)
(7.6666 -1.02332 0)
(6.16961 -0.556179 6.89641e-21)
(7.17096 -2.45024 2.28316e-19)
(6.19533 -4.18734 -1.84106e-19)
(6.46032 1.48654 9.06648e-19)
(6.99044 0.1124 0)
(7.00216 0.160596 0)
(5.74793 -4.05088 5.5439e-19)
(5.87498 -3.98269 0)
(7.19154 -4.88108 -6.45515e-19)
(4.66237 -0.464221 0)
(4.26353 -0.986491 1.26675e-19)
(3.37654 -3.19428 0)
(5.80206 2.65506 1.78132e-19)
(5.93926 -4.31116 0)
(5.82187 2.62965 8.31265e-20)
(5.8292 2.61089 -1.84334e-19)
(5.692 -3.42669 2.18461e-19)
(5.49799 -3.471 0)
(7.42605 -1.61519 0)
(7.40027 -1.66469 0)
(6.78449 0.898421 0)
(5.81683 2.63912 -8.70467e-20)
(5.80597 2.66852 2.50961e-19)
(5.82244 2.6201 -1.09356e-19)
(5.81859 2.62353 9.43012e-20)
(5.81757 2.6292 1.38551e-21)
(6.86102 -0.0224695 -2.73577e-20)
(5.09544 0.203942 0)
(8.52519 -2.14966 6.79419e-19)
(5.89357 2.66484 8.70222e-20)
(5.83771 2.64063 -6.29495e-19)
(5.82744 2.64324 0)
(5.2371 -4.45244 -3.99812e-19)
(5.2633 -4.53355 4.10901e-19)
(6.39695 0.361769 -4.30641e-23)
(4.4666 0.250507 -3.29667e-20)
(6.08646 -1.68078 -1.1453e-17)
(5.76049 -1.41703 1.22311e-17)
(6.3801 -1.87753 8.5746e-19)
(6.0889 0.359467 8.30717e-20)
(4.23853 0.0294916 -1.61596e-18)
(5.86103 2.73494 -1.51738e-19)
(5.83153 2.59652 3.49899e-20)
(7.92899 -4.57882 -1.04365e-18)
(4.94821 1.02241 0)
(4.83066 -1.26537 -5.11211e-19)
(5.92099 2.75235 4.95536e-19)
(5.90851 2.73982 -6.69902e-19)
(5.91239 2.76913 -1.34612e-19)
(6.65953 -2.49913 1.82145e-20)
(7.05855 -1.96534 0)
(7.85979 -4.37038 9.70241e-19)
(6.88754 -1.99372 1.40866e-20)
(6.80848 -2.06491 1.48243e-20)
(6.93655 0.103881 3.60022e-20)
(6.38972 -3.65621 -5.35308e-21)
(6.27772 -3.74279 0)
(4.79761 -2.53049 7.52894e-19)
(7.39833 -4.6957 2.64419e-19)
(6.63748 -3.35427 1.01663e-19)
(6.24466 -4.0444 6.93647e-19)
(7.82022 -1.6836 -4.8708e-20)
(2.63126 -3.05331 -1.17404e-18)
(2.69635 -3.08836 -7.42144e-21)
(1.5498 -1.21523 1.54474e-17)
(6.28528 -3.69562 2.45539e-19)
(6.23117 -3.67789 0)
(6.34088 -3.64902 -2.84389e-19)
(3.11965 0.553671 -1.00075e-17)
(4.77382 0.343392 -1.82597e-19)
(4.81122 0.445923 9.13237e-19)
(6.47101 -2.23567 0)
(6.22631 -3.76978 6.26185e-19)
(7.57967 -1.33375 -7.96139e-20)
(7.62051 -1.26689 -9.27507e-20)
(6.44473 -1.25887 -9.92303e-20)
(6.77223 0.259396 1.77546e-20)
(5.13836 2.73124 -7.41759e-19)
(3.38287 0.398924 0)
(6.93377 -2.97253 0)
(6.42322 1.56537 5.36005e-18)
(6.7716 -2.59118 4.55546e-22)
(5.565 2.62166 1.91493e-18)
(5.52751 2.72066 -9.7841e-19)
(6.67511 -1.71616 0)
(6.67094 -1.78682 1.94372e-20)
(6.62102 -1.82381 -6.03595e-20)
(7.04412 -3.58788 8.36921e-20)
(3.22946 -1.85547 -3.3663e-18)
(6.472 2.80228 -8.14298e-20)
(6.40146 2.93522 1.18178e-19)
(2.307 -0.868184 -1.23356e-17)
(6.27086 2.90397 9.10451e-19)
(4.72495 -3.12596 0)
(5.74641 2.80909 2.46107e-19)
(5.70389 2.87269 -2.40905e-19)
(6.62339 -3.61636 -4.12512e-19)
(5.13525 -1.29489 -6.06488e-19)
(5.76789 2.9589 0)
(5.73791 3.00082 -2.33213e-19)
(4.13243 -0.244325 -6.60932e-19)
(4.3799 -4.4713 9.01659e-19)
(7.00391 -0.00622135 1.58795e-19)
(5.30033 2.50744 -2.59657e-20)
(5.01351 -4.22725 6.62723e-19)
(4.90386 -4.32539 -1.54689e-18)
(5.86565 2.61251 -9.58218e-20)
(6.35652 -1.35902 0)
(3.89874 -0.77516 -8.75089e-20)
(3.86472 -0.900786 0)
(3.844 -0.863945 8.24575e-20)
(5.0897 1.56567 -6.94994e-19)
(6.53153 -2.22795 -8.1124e-20)
(6.61671 -2.18305 0)
(6.76371 -2.15396 6.26166e-21)
(6.76953 -2.08432 -1.49478e-20)
(7.16438 -2.06947 4.58437e-20)
(7.21143 -2.01774 -1.61442e-19)
(7.55756 -1.3104 -7.71238e-20)
(7.51247 -1.33223 7.78627e-20)
(7.55136 -1.2123 0)
(4.49777 0.187571 -2.08788e-21)
(4.44583 0.171435 -1.02211e-18)
(4.33408 0.22075 2.68159e-18)
(6.76989 -1.88453 4.83888e-21)
(6.75976 -1.95739 0)
(6.49581 -3.70076 2.28153e-19)
(6.57545 -3.66989 -2.179e-19)
(5.54106 -3.65252 -3.34456e-18)
(5.61375 -3.71775 1.68189e-18)
(4.70389 -4.42012 -7.74581e-19)
(4.60679 -4.43284 -6.62826e-19)
(6.82164 0.312057 1.09147e-19)
(4.92536 -3.03644 -1.50581e-18)
(4.81244 -3.01546 1.33832e-18)
(6.66166 -0.696573 -3.44036e-17)
(6.70736 -0.786094 -2.31114e-17)
(3.26079 -2.82344 2.5173e-20)
(3.14722 -2.80152 0)