/*--------------------------------*- C++ -*----------------------------------*\
  =========                 |
  \\      /  F ield         | OpenFOAM: The Open Source CFD Toolbox
   \\    /   O peration     | Website:  https://openfoam.org
    \\  /    A nd           | Version:  6
     \\/     M anipulation  |
\*---------------------------------------------------------------------------*/
FoamFile
{
    version     2.0;
    format      ascii;
    class       volScalarField;
    location    "100";
    object      nuTilda;
}
// * * * * * * * * * * * * * * * * * * * * * * * * * * * * * * * * * * * * * //

dimensions      [0 2 -1 0 0 0 0];

internalField   nonuniform List<scalar> 
29884
(
0.276806
0.22674
0.122053
0.155995
0.15636
0.129653
0.191028
0.264048
0.214402
0.141144
0.153471
0.141699
0.153033
0.28853
0.28079
0.192759
0.287408
0.267465
0.28148
0.174725
0.278274
0.118571
0.142523
0.140648
0.144301
0.155047
0.192365
0.21792
0.150159
0.254584
0.148678
0.163001
0.193754
0.1853
0.143738
0.147358
0.250017
0.166468
0.179375
0.187006
0.231954
0.184857
0.176272
0.200858
0.183847
0.166232
0.174369
0.175769
0.136658
0.170868
0.167692
0.17427
0.193551
0.275035
0.263803
0.267938
0.188081
0.284117
0.262938
0.266874
0.198259
0.190287
0.135253
0.171065
0.166627
0.172798
0.280439
0.203294
0.302886
0.211403
0.141244
0.149595
0.143865
0.109382
0.318738
0.281895
0.232985
0.230395
0.225104
0.211683
0.179763
0.197594
0.135366
0.142258
0.155501
0.096511
0.148781
0.154277
0.137427
0.0746363
0.144337
0.155835
0.0996049
0.0684854
0.15163
0.000371672
0.139789
0.139853
0.149713
0.0687019
0.139747
0.139208
0.167881
0.176687
0.149874
0.195084
0.0786422
0.075652
0.153628
0.1388
0.162384
7.82774e-05
0.136302
0.135535
0.138705
0.141986
0.149516
0.118959
0.147536
0.136829
0.139774
0.140943
0.161074
0.139992
0.1407
0.2622
0.224519
0.202222
0.302092
0.147558
0.142914
0.147133
0.254201
0.236435
0.154939
0.145734
0.165738
0.148731
0.162823
0.162902
0.152532
0.161804
0.173005
0.155946
0.169549
0.172663
0.159056
0.165332
0.178448
0.173792
0.171368
0.0937443
0.0821409
0.182414
0.248558
0.214721
0.198008
0.174117
0.228718
0.200349
0.18813
0.155872
0.15404
0.17266
0.000549355
0.000558461
0.204978
0.160376
0.139387
0.139445
0.212163
0.139095
0.138935
0.14789
0.146347
0.151628
0.143852
0.188867
0.142601
0.155731
0.145479
0.128951
0.131139
0.135111
0.135489
0.136014
0.13958
0.139212
0.155241
0.150111
0.155448
0.14135
0.136617
0.143579
0.146375
0.146632
0.141117
0.146825
0.15189
0.149804
0.218024
0.177232
0.153667
0.142301
0.149993
0.136166
0.145839
0.137296
0.147824
0.182878
0.172036
0.213626
0.217117
0.194919
0.257621
0.0942249
0.100098
0.0954118
0.112148
0.091584
0.0927474
0.139613
0.137423
0.119602
0.0854241
0.0933306
0.10697
0.0636256
0.0181448
0.11414
0.101571
0.101261
0.115689
0.125368
0.128421
0.112696
0.10988
0.137995
0.15877
0.100998
0.116775
0.000739692
0.0956448
0.107777
0.135982
0.123478
0.106351
0.100288
0.155515
0.153696
0.137957
0.0781173
0.114225
0.110976
0.0914139
0.0925258
0.0873587
0.0893512
0.151252
0.146303
0.127752
0.101941
0.0889637
0.000864579
0.0812253
0.0948776
0.144969
0.122852
0.122471
0.0945661
0.0972734
0.0953499
0.0837298
0.0865674
0.0797767
0.0783076
0.0748283
0.0658357
0.0674429
0.104212
0.142067
0.115205
0.129494
0.0958227
0.13819
0.116513
0.116296
0.111461
0.000403162
0.137728
0.0595848
0.114604
0.114964
0.0967922
0.121741
0.122052
0.107915
0.114629
0.115037
0.114727
0.126458
0.108744
0.110916
0.109497
0.0529334
0.0740186
0.0772015
0.131489
0.11073
0.111632
0.112404
0.109808
0.0893289
0.0817581
0.0834029
0.124487
0.133828
0.110444
0.145829
0.146441
0.147682
0.0634532
0.0577468
0.0586104
0.126656
0.100757
0.0882376
0.0890003
0.0871264
0.0895116
0.111086
0.112594
0.112709
0.111159
0.0936423
0.0885289
0.137629
0.1709
0.0687574
0.0772139
0.149304
0.12037
0.0880365
0.111388
0.134823
0.0651491
0.0635008
0.062032
0.0660139
0.0718005
0.0715593
0.0652574
0.0995117
0.10087
0.102292
0.0654923
0.0626344
0.0575945
0.0604518
0.0603606
0.0620085
0.072756
0.132556
0.121183
0.109579
0.109899
0.120701
0.132955
0.000948611
0.0691221
0.146886
0.140921
0.136646
0.143937
0.129197
0.0991886
0.0945686
0.138842
0.122924
0.124968
0.121982
0.11686
0.126832
0.122685
0.131489
0.122537
0.127175
0.123829
0.125858
0.0883462
0.0844641
0.0830611
0.0903334
0.129695
0.130181
0.132903
0.101508
0.101177
0.132675
0.123223
0.0820334
0.0694445
0.0916169
0.0846078
0.087766
0.0890742
0.0611431
0.137212
0.138417
0.139397
0.138655
0.0855204
0.0908742
0.0547703
0.0528485
0.0545327
0.0730146
0.128151
0.0652846
0.0784011
0.0854338
0.0924609
0.0751683
0.0715292
0.0764956
0.0728649
0.079335
0.0742141
0.0770194
0.0808692
0.0762337
0.0769229
0.0794725
0.129303
0.0735564
0.0729087
0.0736224
0.0744095
0.153998
0.157658
0.105118
0.108064
0.107833
0.105325
0.151151
0.149815
0.135368
0.138763
0.138332
0.140046
0.136533
0.121932
0.137932
0.0773195
0.084978
0.13039
0.145039
0.139199
0.130448
0.145943
0.027576
0.124194
0.125655
0.0756583
0.119041
0.122376
0.123213
0.118323
0.0821768
0.0901066
0.0863798
0.0860305
0.137903
0.137719
0.13798
0.139608
0.139549
0.165255
0.150841
0.157292
0.158514
0.140486
0.144425
0.142376
0.142306
0.107632
0.106269
0.102797
0.110214
0.103356
0.102205
0.105942
0.0808147
0.0858188
0.0843723
0.0826842
0.136886
0.134622
0.136142
0.00148483
0.0223325
0.138595
0.0434759
0.119528
0.139537
0.138682
0.00150713
0.00390133
0.138985
0.13901
0.139174
0.138772
0.15623
0.13842
0.16025
0.000310236
0.000360877
0.137277
0.0982395
0.229786
0.139239
0.255924
0.125874
0.140734
0.13888
0.000773732
0.140825
0.133559
0.140327
0.137718
0.158202
0.155875
0.135001
0.121795
0.133434
0.143377
0.129565
0.124408
0.169611
0.209922
0.240053
0.14342
0.143366
0.138952
0.138937
0.139693
0.139481
0.130098
0.0187082
0.12848
0.121909
0.129078
0.139042
0.163667
0.139031
0.139022
0.13898
0.0144354
0.138339
0.138549
0.148638
0.14975
0.152127
0.122519
0.243635
0.209432
0.162544
0.158181
0.15788
0.101158
0.106565
0.126783
0.127459
0.18451
0.20362
0.128374
0.251871
0.138237
0.138329
0.252755
0.206755
0.00206012
0.124253
0.261313
0.0954658
0.14184
0.143007
0.00061358
0.0749356
0.0685078
0.137448
0.139463
0.139247
0.157065
0.121027
0.131209
0.129391
0.0890698
0.0900362
0.14389
0.141326
0.144824
0.139436
0.139192
0.00174065
0.138841
0.137279
0.136028
0.137767
0.138004
0.138219
0.183983
0.133296
0.136191
0.130078
0.1327
0.160334
0.166176
0.199377
0.177157
0.120967
0.137512
0.133111
0.141122
0.160311
0.158812
0.145828
0.159955
0.150115
0.14675
0.123011
0.119146
0.0770139
0.080198
0.083785
0.0913957
0.138981
0.140568
0.142036
0.253471
0.193806
0.0859321
0.0922631
0.200928
0.172117
0.196972
0.145491
0.159266
0.153591
0.164328
0.234646
0.189135
0.181369
0.142076
0.143346
0.13873
0.138534
0.1395
0.13824
0.156218
0.110846
0.114288
0.118045
0.137544
0.138148
0.137519
0.137605
0.137205
0.139611
0.161913
0.153323
0.132149
0.138931
0.141766
0.144103
0.134647
0.135289
0.212973
0.267971
0.237178
0.108709
0.113175
0.115683
0.0140724
0.0156745
0.136078
0.1335
0.0701536
0.0710864
0.165941
0.168806
0.162098
0.0725926
0.069633
0.121373
0.120523
0.0856574
0.0753072
0.115049
0.135328
0.134743
0.135587
0.0283211
0.132092
0.0179986
0.113572
0.0597299
0.0632801
0.0347204
0.0526694
0.135276
0.0948629
0.0238205
0.0548377
0.0556201
0.128288
0.127165
0.134276
0.130881
0.131046
0.135319
0.12052
0.119557
0.0907135
0.1355
0.135246
0.125201
0.126871
0.12678
0.130549
0.128903
0.129083
0.0833677
0.135363
0.135331
0.0852255
0.0131633
0.0669149
0.0716136
0.0429011
0.121466
0.093508
0.0812777
0.12349
0.0888758
0.121653
0.109338
0.131244
0.0257065
0.135218
0.135545
0.132986
0.122173
0.124414
0.090838
0.12892
0.120713
0.108445
0.128163
0.0976951
0.131627
0.0402531
0.0482206
0.106916
0.0997564
0.111967
0.0999656
0.0734553
0.118076
0.090805
0.0620401
0.0632499
0.0913091
0.00189619
0.0489907
0.0845978
0.134311
0.100608
0.0987572
0.135291
0.120208
0.120522
0.118824
0.00171691
0.132522
0.104817
0.1062
0.0742077
0.132645
0.13261
0.0513366
0.0482508
0.0957641
0.0968252
0.0631917
0.136582
0.102347
0.121002
0.0923336
0.104281
0.115257
0.0216899
0.13182
0.131738
0.0794639
0.121663
0.123674
0.0751007
0.00818062
0.0988205
0.1011
0.129213
0.128806
0.0840749
0.0768837
0.120595
0.121174
0.118929
0.0439046
0.118273
0.108354
0.109276
0.066229
0.127586
0.103103
0.00509592
0.0972643
0.114993
0.0497081
0.0489902
0.107283
0.106603
0.11864
0.125655
0.134394
0.0320017
0.137574
0.141517
0.134176
0.137784
0.16105
0.127386
0.132749
0.132148
0.135693
0.0193808
0.0390738
0.0599538
0.131124
0.0692799
0.0983225
0.10439
0.125279
0.135026
0.125734
0.125375
0.1218
0.134044
0.132422
0.131875
0.119121
0.116112
0.105546
0.0355302
0.0341576
0.032536
0.124484
0.100802
0.0759984
0.111262
0.108737
0.128832
0.117167
0.0967977
0.0890404
0.130003
0.130713
0.117809
0.136165
0.107501
0.124919
0.12593
0.124898
0.114677
0.12745
0.133566
0.132096
0.135603
0.135594
0.0942687
0.129595
0.101867
0.124872
0.130064
0.130044
0.130478
0.0888772
0.119526
0.118569
0.0909937
0.135202
0.126099
0.0939917
0.0941638
0.113729
0.133484
0.133094
0.127989
0.125024
0.124447
0.0756779
0.112039
0.108547
0.0356831
0.122609
0.122834
0.123692
0.135091
0.135042
0.134852
0.134874
0.122863
0.122325
0.090025
0.0626676
0.0842056
0.0875866
0.138712
0.13494
0.0655818
0.12173
0.127765
0.124897
0.0852102
0.132677
0.135391
0.125111
0.127333
0.0973863
0.104296
0.132473
0.124526
0.103683
0.0854915
0.085804
0.127498
0.127317
0.108013
0.0234101
0.126078
0.124293
0.132178
0.134388
0.134781
0.0919482
0.0892499
0.132635
0.102654
0.0648524
0.0753413
0.135684
0.0781534
0.0722702
0.127943
0.0730536
0.0679206
0.13039
0.111894
0.109415
0.125811
0.126603
0.12508
0.0951991
0.0947292
0.130939
0.131304
0.0657171
0.0690134
0.0581624
0.126015
0.04462
0.0965842
0.0937196
0.042883
0.035303
0.130168
0.130015
0.130686
0.104382
0.0990798
0.131536
0.122935
0.132327
0.125807
0.125254
0.127309
0.0508698
0.0528105
0.144069
0.131269
0.0620853
0.059294
0.134675
0.134446
0.136319
0.135982
0.136448
0.110601
0.109146
0.0223322
0.131505
0.0771612
0.105078
0.0765095
0.077391
0.0458583
0.101221
0.113207
0.109348
0.135337
0.050651
0.0947804
0.0959384
0.115938
0.109893
0.131471
0.101244
0.102634
0.107119
0.109275
0.0999912
0.0992861
0.0983916
0.136321
0.137427
0.10942
0.0796842
0.0959512
0.130197
0.102489
0.103669
0.121732
0.122569
0.108898
0.107083
0.108983
0.140278
0.138103
0.132737
0.132944
0.132287
0.133384
0.134101
0.111073
0.134796
0.0245645
0.0992972
0.105705
0.0879395
0.087887
0.12171
0.138028
0.128471
0.13021
0.126549
0.126523
0.126644
0.127265
0.126065
0.120728
0.119413
0.0939251
0.0989356
0.101907
0.1323
0.132426
0.132014
0.0121437
0.131999
0.106017
0.103853
0.131651
0.131305
0.131692
0.130645
0.131359
0.0799378
0.085138
0.0836234
0.0813474
0.0674303
0.0621398
0.103997
0.108816
0.109324
0.111376
0.128488
0.122328
0.0690612
0.107591
0.103663
0.0869767
0.0832839
0.0616401
0.105475
0.124324
0.124617
0.0805488
0.106891
0.104274
0.125175
0.106268
0.108686
0.105734
0.108707
0.115086
0.113344
0.116156
0.0898298
0.0944636
0.134231
0.134249
0.104533
0.0476587
0.135193
0.135192
0.135033
0.107252
0.00206445
0.137004
0.109516
0.107404
0.0509388
0.000588932
0.103089
0.124045
0.10734
0.120108
0.120876
0.119781
0.123163
0.125323
0.111968
0.0518602
0.0798995
0.0780593
0.0812275
0.0904531
0.101914
0.101718
0.102712
0.132372
0.13285
0.0013865
0.119963
0.118164
0.100219
0.102855
0.0983063
0.000952951
0.00133596
0.117572
0.0693974
0.0600582
0.108735
0.111795
0.111375
0.108802
0.121986
0.0858422
0.0833975
0.132529
0.00108456
0.133999
0.134091
0.103056
0.0982065
0.130001
0.0409073
0.131575
0.130956
0.0995204
0.0984615
0.0963486
0.113797
0.11122
0.115738
0.128579
0.128648
0.135046
0.0859622
0.125814
0.0576229
0.0016586
0.0632946
0.129766
0.00100169
0.103589
0.1211
0.120269
0.0481931
0.119172
0.117217
0.13029
0.131462
0.087593
0.0851857
0.0628561
0.0654141
0.0605226
0.106543
0.106342
0.103245
0.135558
0.135576
0.00197811
0.0745196
0.000741137
0.125843
0.0465623
0.135982
0.135935
0.136263
0.135758
0.132084
0.122847
0.122076
0.137759
0.138079
0.125943
0.0950365
0.0900139
0.0941129
0.0998879
0.125712
0.132683
0.133317
0.0925494
0.0891986
0.134788
0.132952
0.134669
0.000994935
0.0945103
0.0962237
0.0977367
0.0931207
0.135633
0.135599
0.0864956
0.0974455
0.0983171
0.135775
0.133753
0.133782
0.131687
0.0918922
0.087763
0.0951559
0.114041
0.113811
0.127941
0.136803
0.0950112
0.093199
0.133569
0.133909
0.105194
0.108346
0.106064
0.107523
0.134647
0.134597
0.132
0.136775
0.136304
0.137448
0.0974036
0.0951221
0.000399293
0.109135
0.111144
0.0933847
0.0862776
0.000527399
0.00062541
0.00038903
0.046831
0.0485625
0.0765427
0.0749296
0.129638
0.134747
0.127733
0.134757
0.0405259
0.0874239
0.0870014
0.0914205
0.1367
0.134931
0.136392
0.135621
0.00059682
0.00194958
0.000649984
0.0019046
0.0420417
0.0433995
0.0949239
0.0930534
0.000400931
0.114467
0.0882373
0.0937788
0.0950044
0.0949715
0.119597
0.117349
0.11866
0.105306
0.106787
0.104284
0.10305
0.134653
0.129474
0.131463
0.128903
0.114024
0.115594
0.110883
0.116172
0.106117
0.110834
0.101019
0.0996121
0.101918
0.134942
0.133919
0.133926
0.133667
0.0752301
0.0788809
0.13625
0.133496
0.133223
0.133531
0.000479035
0.00147996
0.122808
0.120187
0.120418
0.122565
0.102441
0.132191
0.132346
0.13187
0.0918039
0.0923935
0.0931038
0.0908671
0.127962
0.128173
0.127273
0.155754
0.109354
0.133127
0.133477
0.132985
0.133691
0.0770274
0.0830231
0.129353
0.129857
0.13259
0.131781
0.0830608
0.128237
0.101948
0.0992765
0.108969
0.000391492
0.129034
0.135283
0.132856
0.133199
0.132545
0.106208
0.102956
0.0284135
0.117199
0.116771
0.118654
0.117271
0.119517
0.113956
0.123979
0.126371
0.125795
0.0371159
0.0368304
0.1128
0.112989
0.130777
0.130683
0.131172
0.000409132
0.0553635
0.000460223
0.13326
0.137806
0.138362
0.13817
0.137964
0.00289949
0.106406
0.108894
0.106746
0.159238
0.159491
0.158035
0.160917
0.13201
0.131746
0.1311
0.132585
0.0453939
0.0432219
0.0454245
0.0426768
0.13149
0.129548
0.130792
0.137014
0.00131609
0.0394012
0.1162
0.111971
0.114104
0.113908
0.124566
0.124865
0.125266
0.104521
0.132444
0.132494
0.133953
0.129263
0.128759
0.129026
0.094464
0.0961439
0.0953771
0.0978498
0.0987109
0.104755
0.1017
0.101211
0.104915
0.103487
0.104948
0.104265
0.103957
0.117838
0.116382
0.12019
0.124729
0.123826
0.131905
0.132006
0.131461
0.135505
0.134205
0.0917499
0.093599
0.120546
0.118936
0.119232
0.120347
0.0848853
0.0846739
0.0830802
0.153283
0.155958
0.117344
0.113328
0.112739
0.0883166
0.128424
0.126739
0.129401
0.119696
0.11996
0.10137
0.0936997
0.0925981
0.0938109
0.0918224
0.00099113
0.123324
0.124376
0.123645
0.124082
0.136945
0.137149
0.120524
0.118148
0.118754
0.119867
0.123708
0.123806
0.122691
0.106814
0.1109
0.105698
0.112989
0.115895
0.1137
0.115451
0.137053
0.133854
0.129183
0.115473
0.114547
0.115701
0.11423
0.0381546
0.13446
0.0378222
0.0379883
0.117154
0.120326
0.119697
0.117806
0.0810122
0.117342
0.116959
0.131407
0.131218
0.131229
0.109024
0.125388
0.13452
0.134874
0.134038
0.127093
0.122835
0.124745
0.125396
0.088438
0.135763
0.135679
0.0704977
0.0779047
0.116413
0.114158
0.115661
0.000396261
0.123788
0.133301
0.0956818
0.0995454
0.0966967
0.129658
0.108263
0.10588
0.109182
0.110805
0.108226
0.109607
0.115224
0.115097
0.128473
0.129489
0.123361
0.125267
0.125725
0.0980904
0.094239
0.125106
0.074073
0.0821481
0.0782507
0.0714939
0.0722645
0.0327518
0.0270129
0.0402873
0.120819
0.125629
0.126758
0.125228
0.125033
0.125999
0.130864
0.130418
0.13633
0.136366
0.118823
0.117018
0.106801
0.10965
0.104054
0.118945
0.104942
0.10266
0.0829902
0.08527
0.0823063
0.107513
0.106094
0.108701
0.0563853
0.0637377
0.128277
0.127215
0.127617
0.127918
0.115884
0.111528
0.112399
0.113694
0.0565191
0.0604554
0.0586899
0.058276
0.000744404
0.116921
0.117517
0.118722
0.076357
0.073055
0.0882585
0.0841071
0.131771
0.131322
0.131895
0.0748005
0.0809656
0.13623
0.135854
0.136069
0.136085
0.0925233
0.110485
0.113425
0.107252
0.106531
0.1084
0.105422
0.130046
0.130383
0.129777
0.0508888
0.0535399
0.0463672
0.0820166
0.0832981
0.0796547
0.0853465
0.0819097
0.116549
0.113883
0.121927
0.122658
0.122571
0.131252
0.136005
0.136083
0.137004
0.114817
0.113171
0.110768
0.111652
0.11234
0.111085
0.109206
0.109349
0.110867
0.134427
0.130429
0.131602
0.130244
0.131904
0.131249
0.103615
0.100938
0.10167
0.103081
0.0975187
0.0997076
0.0982091
0.0993141
0.041708
0.119351
0.119238
0.136171
0.136085
0.000424184
0.0521509
0.0708356
0.0712758
0.126896
0.127524
0.128945
0.128579
0.129313
0.136377
0.135833
0.0223872
0.0272411
0.119909
0.117388
0.118902
0.118596
0.1351
0.127165
0.128669
0.126938
0.0387443
0.115868
0.114671
0.116744
0.113566
0.10993
0.11172
0.110315
0.111294
0.109336
0.112754
0.108616
0.135693
0.104285
0.10197
0.101852
0.104237
0.0884577
0.091291
0.135041
0.131017
0.131244
0.131046
0.101089
0.104492
0.103631
0.101637
0.13404
0.134349
0.124376
0.125182
0.125112
0.124421
0.0905411
0.113491
0.113539
0.109367
0.0792319
0.0719002
0.106921
0.10959
0.134538
0.134328
0.134623
0.10123
0.100272
0.101749
0.0985423
0.0962375
0.0973906
0.123582
0.124694
0.12494
0.123303
0.0328126
0.0924771
0.0919922
0.0946057
0.0896314
0.0161075
0.106506
0.127337
0.1316
0.126392
0.127107
0.12707
0.126381
0.128254
0.118037
0.120755
0.119106
0.11969
0.127521
0.128238
0.127465
0.098616
0.120012
0.122256
0.12073
0.125867
0.126941
0.114316
0.118978
0.117229
0.135539
0.134565
0.13546
0.134568
0.0558892
0.135222
0.0511154
0.0473643
0.0875136
0.0870222
0.0901806
0.0671012
0.0609303
0.0702611
0.128469
0.133925
0.134651
0.13328
0.0874201
0.0860292
0.089417
0.087067
0.0887062
0.0880439
0.122038
0.123912
0.0423038
0.0448071
0.0916722
0.0920487
0.092595
0.0906196
0.124025
0.12446
0.106463
0.128697
0.128971
0.129687
0.120985
0.121028
0.118976
0.075712
0.118508
0.117656
0.120467
0.115634
0.112098
0.115369
0.113735
0.11356
0.117642
0.115693
0.116602
0.134779
0.136022
0.131556
0.138747
0.0880648
0.111572
0.110287
0.113983
0.115605
0.117616
0.116432
0.116398
0.117612
0.124133
0.125917
0.120392
0.118476
0.103592
0.12843
0.129574
0.12948
0.104231
0.0994609
0.103483
0.0994369
0.0895017
0.0956018
0.139352
0.138181
0.139491
0.119565
0.112544
0.115752
0.116728
0.125169
0.124446
0.109905
0.101193
0.126658
0.129192
0.128576
0.127174
0.129002
0.0908536
0.0943368
0.0965296
0.0890098
0.107454
0.105641
0.108337
0.0942854
0.0741944
0.102335
0.10344
0.10161
0.104155
0.0735474
0.0764232
0.112475
0.11347
0.0944396
0.0632829
0.107311
0.108685
0.0948243
0.027353
0.134116
0.133509
0.133889
0.115278
0.0837164
0.0995848
0.14488
0.143089
0.146274
0.141798
0.122253
0.122319
0.120311
0.0558113
0.0557533
0.000324601
0.125286
0.0975776
0.114703
0.11276
0.113376
0.114071
0.128017
0.128911
0.128698
0.128229
0.102324
0.103143
0.101481
0.103872
0.106208
0.107325
0.108032
0.105463
0.131073
0.130668
0.131108
0.130593
0.113653
0.114295
0.111817
0.0925191
0.0561901
0.116477
0.135253
0.134381
0.123485
0.122446
0.0534024
0.0828398
0.10518
0.106264
0.103255
0.0895239
0.0673443
0.067022
0.0653057
0.0686961
0.132063
0.130389
0.129701
0.129953
0.130134
0.0802298
0.0850492
0.0828222
0.0825339
0.117552
0.120282
0.118964
0.118905
0.102628
0.101418
0.103772
0.100294
0.13282
0.132844
0.133108
0.132535
0.0907337
0.0863047
0.0895302
0.0874617
0.109882
0.108009
0.135174
0.134174
0.133134
0.135695
0.114336
0.117121
0.115582
0.134993
0.133469
0.132608
0.13293
0.140125
0.140481
0.14113
0.139584
0.13778
0.137056
0.136331
0.0799729
0.130685
0.130322
0.00034474
0.116581
0.118579
0.116643
0.118343
0.131901
0.133026
0.135637
0.0889289
0.0281057
0.0254537
0.0318489
0.131916
0.132421
0.127847
0.129217
0.128695
0.126594
0.125701
0.126489
0.141589
0.140304
0.14179
0.140349
0.135074
0.135684
0.135344
0.122709
0.125018
0.113459
0.11568
0.114249
0.000247497
0.144551
0.142638
0.109791
0.108323
0.0676186
0.0684604
0.0659787
0.0698418
0.0936798
0.100693
0.0888118
0.0899399
0.118634
0.117457
0.114564
0.113769
0.115432
0.113078
0.151616
0.130202
0.128876
0.109989
0.10735
0.108522
0.108752
0.0949553
0.0979201
0.096862
0.0954509
0.102589
0.0995693
0.101446
0.100384
0.122607
0.124372
0.122647
0.0982133
0.0997349
0.100215
0.0976127
0.121125
0.122878
0.110773
0.0931543
0.0985633
0.0976344
0.00140263
0.106535
0.103857
0.105559
0.112054
0.10676
0.100853
0.0974066
0.0984264
0.0996444
0.109414
0.103907
0.117862
0.121052
0.119934
0.119149
0.116431
0.117417
0.117903
0.115865
0.104086
0.106541
0.103774
0.107159
0.135849
0.135852
0.135726
0.107821
0.109169
0.110064
0.106876
0.135392
0.135527
0.135311
0.0786782
0.113479
0.11185
0.111197
0.114156
0.0792202
0.111912
0.0702858
0.0424658
0.127126
0.0215012
0.0170289
0.0158736
0.0937
0.120689
0.0359911
0.00069316
0.00150788
0.000717833
0.0005634
0.0810695
0.000708899
0.00136673
0.039423
0.0403261
0.12692
0.033432
0.030494
0.138765
0.0281594
0.128503
0.0408737
0.0930008
0.0937005
0.0583579
0.000615661
0.124988
0.0425293
0.0181364
0.0192007
0.033496
0.169313
0.13702
0.0403457
0.0438637
0.10077
0.0128611
0.093455
0.137199
0.125762
0.122567
0.119069
0.121334
0.0166623
0.0447935
0.00075332
0.00169246
0.00138229
0.0716842
0.0671448
0.0318241
0.0789582
0.00840654
0.0104402
0.0793999
0.000605071
0.126293
0.112713
0.138607
0.138485
0.00127933
0.0938279
0.0910794
0.0371688
0.0268546
0.068885
0.0675587
0.069627
0.102931
0.105712
0.0306211
0.108337
0.137492
0.137153
0.0913644
0.0006148
0.0167265
0.0201854
0.104187
0.0178649
0.0560772
0.000661362
0.0628942
0.0819023
0.130097
0.00971717
0.0433909
0.0380301
0.138347
0.114035
0.0118049
0.0788244
0.0669014
0.0353412
0.135155
0.074529
0.0118704
0.0407197
0.0385748
0.0382274
0.0622332
0.0612776
0.0845353
0.0734775
0.0729293
0.0707288
0.0722432
0.0503275
0.0044649
0.0764865
0.093861
0.136133
0.069248
0.11864
0.0491946
0.164721
0.000500733
0.0814316
0.0794342
0.0822419
0.127115
0.0759519
0.0773531
0.0274861
0.000594038
0.00751566
0.00830788
0.129621
0.14202
0.0687146
0.0803785
0.0173986
0.0221033
0.00822411
0.0507618
0.0560734
0.152671
0.00111008
0.137172
0.137618
0.0772689
0.0447834
0.0439856
0.119533
0.118191
0.0535605
0.0938268
0.0802859
0.0800663
0.0376634
0.0140775
0.100801
0.0462218
0.0588203
0.117508
0.118545
0.11562
0.0247807
0.0247547
0.132653
0.132402
0.0715999
0.0663035
0.0826423
0.103593
0.105939
0.109758
0.018255
0.0178215
0.0809699
0.138497
0.0144431
0.018799
0.0171059
0.015672
0.0206026
0.015456
0.0201825
0.0262242
0.0190118
0.0157629
0.020751
0.0194101
0.025589
0.0794867
0.0819115
0.0723702
0.0158579
0.0216555
0.071769
0.00037782
0.00121701
0.0881621
0.0156595
0.0595978
0.0540425
0.085976
0.0831653
0.023123
0.0204403
0.0190769
0.0243321
0.123281
0.0177284
0.123423
0.12316
0.121438
0.117204
0.115526
0.0270367
0.0646474
0.0207303
0.13118
0.0757302
0.0136727
0.0431495
0.0402081
0.048489
0.0348379
0.0285656
0.14
0.0578445
0.0614958
0.0149956
0.0115404
0.127003
0.132888
0.153708
0.160141
0.0299988
0.0557658
0.138745
0.0669621
0.0671042
0.000909758
0.0306369
0.0663995
0.117383
0.120013
0.0315706
0.120239
0.0351471
0.030352
0.0342427
0.0212046
0.151962
0.153395
0.155609
0.0019036
0.0687489
0.159386
0.162244
0.115026
0.11608
0.0816301
0.0992569
0.0919518
0.132431
0.139199
0.139075
0.0701084
0.13746
0.00854286
0.010927
0.0367657
0.0855457
0.0550901
0.058343
0.0654936
0.0644239
0.0613974
0.0134713
0.00953679
0.0064483
0.13582
0.123134
0.0392571
0.120707
0.129667
0.130249
0.0975829
0.0765547
0.0748098
0.165751
0.14776
0.00595926
0.0271924
0.127134
0.126379
0.021263
0.0193552
0.0851926
0.0842279
0.110046
0.107633
0.110959
0.114723
0.0728649
0.0839047
0.0799035
0.120632
0.0835496
0.0862602
0.072936
0.0877324
0.0785398
0.0517462
0.0108599
0.0754694
0.0156011
0.165646
0.0375046
0.0408084
0.0800112
0.0868536
0.0718985
0.078911
0.100305
0.0932632
0.10905
0.0812238
0.114895
0.0375187
0.138174
0.0930401
0.00855282
0.0478599
0.0119091
0.012045
0.13785
0.0945387
0.0943439
0.0497107
0.137717
0.162936
0.165078
0.0685217
0.101434
0.102836
0.101498
0.103588
0.111939
0.0893524
0.0918448
0.0923585
0.0910084
0.169711
0.168788
0.136018
0.136575
0.124865
0.124125
0.132667
0.0335203
0.0302726
0.133766
0.0672999
0.136752
0.0682231
0.0707536
0.0711561
0.127951
0.126337
0.127535
0.162296
0.146694
0.138915
0.133246
0.132797
0.133009
0.122322
0.0152164
0.114619
0.106527
0.0635075
0.0623727
0.0989875
0.0719057
0.120149
0.123597
0.100718
0.170612
0.0445588
0.0805583
0.0484241
0.0485738
0.0462384
0.0448567
0.046447
0.121595
0.124012
0.122991
0.079177
0.0804413
0.0507307
0.132789
0.0513413
0.0385399
0.084542
0.0791948
0.0762039
0.0839322
0.104376
0.115157
0.117877
0.132464
0.12646
0.00579216
0.00789938
0.138613
0.0543601
0.024709
0.0536497
0.118905
0.117408
0.138502
0.112319
0.138637
0.132936
0.132157
0.0676952
0.0726332
0.126073
0.126891
0.124877
0.125507
0.151725
0.147582
0.0950049
0.0972718
0.125548
0.123221
0.0161414
0.118717
0.117613
0.13626
0.138876
0.138694
0.138646
0.167572
0.169978
0.137646
0.139678
0.138316
0.167268
0.0758387
0.0793217
0.0788784
0.144834
0.142686
0.141745
0.152523
0.143422
0.129192
0.109353
0.111881
0.145368
0.139361
0.060715
0.0635159
0.0831239
0.0771732
0.000350121
0.00793745
0.110132
0.0608529
0.0665747
0.0691347
0.119077
0.00135794
0.00391085
0.123939
0.124372
0.0567819
0.0183198
0.0275797
0.03168
0.0267215
0.0693295
0.0710338
0.0762189
0.11302
0.114768
0.0598798
0.0588248
0.0618644
0.0294379
0.0328873
0.12936
0.127574
0.148609
0.149026
0.123766
0.109507
0.128065
0.127696
0.126945
0.133809
0.131018
0.162597
0.164811
0.112446
0.11119
0.0628646
0.0656204
0.138621
0.138549
0.242617
0.227097
0.0865106
0.0362132
0.0895613
0.0468732
0.0405515
0.0360243
0.0357023
0.0336534
0.166744
0.10391
0.111627
0.126898
0.122493
0.0775201
0.0806932
0.114627
0.11304
0.0959453
0.0761759
0.0530556
0.0359371
0.0677701
0.0285212
0.0984362
0.136613
0.0529858
0.0548697
0.155805
0.140152
0.0805121
0.0970232
0.0919524
0.04083
0.109823
0.111468
0.120184
0.0896359
0.0874806
0.128717
0.0809283
0.000410077
0.0939811
0.0960518
0.04876
0.0386264
0.0447509
0.111176
0.114506
0.113659
0.121187
0.168624
0.169417
0.133403
0.132886
0.133629
0.0970694
0.0975505
0.0888559
0.0931872
0.0923659
0.0662698
0.118258
0.0482999
0.13992
0.139639
0.139839
0.135161
0.124824
0.0540056
0.0593956
0.0710854
0.0665484
0.0959548
0.0674658
0.0735403
0.0727782
0.0700091
0.0825022
0.0672437
0.0972777
0.103227
0.107835
0.0934527
0.0935968
0.0454621
0.0466194
0.116677
0.114618
0.134121
0.126
0.128177
0.0605576
0.0258936
0.028774
0.135319
0.0789483
0.131992
0.0187743
0.0637244
0.0590466
0.0636436
0.0558754
0.0698677
0.100478
0.0668489
0.0613619
0.0580075
0.106215
0.0929143
0.001862
0.00495105
0.132005
0.138215
0.131548
0.131809
0.0859982
0.111645
0.106678
0.0758656
0.0774373
0.0732263
0.0746257
0.0770928
0.163098
0.0796207
0.0818014
0.140035
0.140531
0.0694543
0.0726452
0.0673554
0.092607
0.138702
0.0907738
0.0890266
0.0988156
0.134355
0.0637364
0.0112982
0.00130132
0.00412808
0.0473569
0.151042
0.0126876
0.182846
0.0123464
0.00461635
0.00844059
0.0210674
0.0183883
0.018322
0.0133829
0.0131004
0.128885
0.037535
0.0417309
0.103373
0.0983521
0.131042
0.130133
0.139253
0.139402
0.139183
0.111183
0.0960741
0.0960951
0.0698315
0.0675001
0.0661513
0.0887901
0.0889549
0.0906082
0.0907256
0.0743218
0.078322
0.0830934
0.145664
0.150731
0.138118
0.137924
0.058595
0.119682
0.115867
0.0541233
0.0607878
0.137529
0.137211
0.0352918
0.12909
0.128696
0.1391
0.138778
0.0323756
0.13382
0.073847
0.0757176
0.126519
0.0764721
0.0680575
0.0183713
0.0545288
0.0941001
0.133738
0.133949
0.0867454
0.0936497
0.0976189
0.00882199
0.0735492
0.074366
0.0729375
0.124605
0.125035
0.125986
0.0715844
0.102203
0.107311
0.107844
0.105701
0.0846982
0.10523
0.106884
0.117355
0.0978336
0.0986523
0.0967124
0.092625
0.0955054
0.00611222
0.112476
0.113549
0.115585
0.0843905
0.0813848
0.137063
0.137909
0.136659
0.136604
0.0728507
0.0794275
0.126768
0.127642
0.103969
0.10479
0.103317
0.23095
0.187154
0.0807374
0.0788509
0.0374634
0.0417781
0.121556
0.130603
0.13202
0.131349
0.130534
0.129696
0.100004
0.103988
0.138417
0.138132
0.111139
0.109638
0.11123
0.112591
0.109379
0.107916
0.107554
0.106459
0.0810248
0.0902321
0.135346
0.135663
0.0436719
0.138009
0.138181
0.127161
0.126872
0.122997
0.0536083
0.0634437
0.0666294
0.0772928
0.079194
0.0452105
0.138198
0.118822
0.103826
0.110902
0.115917
0.0652288
0.134894
0.1382
0.0675211
0.0039029
0.00914465
0.13474
0.133386
0.0612789
0.109492
0.0832595
0.0780361
0.120331
0.140035
0.0885748
0.0932874
0.101157
0.0621092
0.0664527
0.0459577
0.109054
0.10786
0.0781797
0.0426337
0.0428701
0.121557
0.110967
0.110671
0.107614
0.0813165
0.0867341
0.0851363
0.0726601
0.068727
0.0651074
0.0586051
0.0566971
0.108255
0.105173
0.105375
0.0373766
0.0334381
0.104226
0.103359
0.105954
0.081662
0.0754115
0.0513668
0.0444288
0.0469997
0.0178858
0.101659
0.0973542
0.0982222
0.103467
0.104824
0.0751415
0.111331
0.112526
0.114604
0.0383707
0.14876
0.160767
0.0792745
0.0745388
0.129965
0.130898
0.150263
0.155217
0.129742
0.128121
0.127656
0.119087
0.12052
0.118499
0.167038
0.163404
0.166643
0.100346
0.103241
0.102976
0.138567
0.14084
0.139991
0.11487
0.0512658
0.118226
0.112279
0.134519
0.133866
0.0841225
0.0856504
0.0787916
0.119996
0.118012
0.105868
0.103595
0.0729498
0.074679
0.128949
0.125638
0.123872
0.096328
0.0975619
0.08671
0.0898916
0.0884182
0.13054
0.129386
0.127756
0.12865
0.127289
0.147992
0.140894
0.145609
0.129824
0.128395
0.12389
0.125561
0.0856666
0.0847066
0.149168
0.150939
0.104555
0.103804
0.0756421
0.0170124
0.11252
0.112185
0.0789233
0.146088
0.140321
0.142414
0.131372
0.0448805
0.0721469
0.0755864
0.131821
0.131593
0.0758388
0.069462
0.123697
0.125166
0.077067
0.0751093
0.072879
0.0914374
0.0895725
0.141551
0.138319
0.101682
0.0985311
0.0520745
0.0507856
0.064463
0.11606
0.101289
0.100311
0.182658
0.210067
0.0067188
0.0789837
0.0573652
0.110021
0.10857
0.0513212
0.0517084
0.0276885
0.0309353
0.140408
0.138855
0.138416
0.136973
0.136643
0.125041
0.12619
0.123852
0.00164
0.00236042
0.00141758
0.0528439
0.0504031
0.0523935
0.0502248
0.12279
0.117258
0.117141
0.0515055
0.053606
0.0742084
0.111485
0.110945
0.108881
0.0498191
0.0521742
0.0679053
0.0207712
0.122293
0.0213924
0.0250666