/*--------------------------------*- C++ -*----------------------------------*\
  =========                 |
  \\      /  F ield         | OpenFOAM: The Open Source CFD Toolbox
   \\    /   O peration     | Website:  https://openfoam.org
    \\  /    A nd           | Version:  6
     \\/     M anipulation  |
\*---------------------------------------------------------------------------*/
FoamFile
{
    version     2.0;
    format      ascii;
    class       volScalarField;
    location    "100";
    object      p;
}
// * * * * * * * * * * * * * * * * * * * * * * * * * * * * * * * * * * * * * //

dimensions      [0 2 -2 0 0 0 0];

internalField   nonuniform List<scalar> 
29884
(
2.80273
0.0673926
0.931003
-2.24546
0.133925
2.76667
0.112171
-4.52975
-0.791962
1.45084
3.20657
0.968659
-0.965094
-2.42364
-0.00289414
-2.00347
-0.322625
-2.25006
-4.50783
-2.99846
-3.54334
0.942181
0.673045
3.77961
-1.17484
1.54965
-0.817812
-1.27199
0.789979
0.324045
3.34614
2.86247
-0.747555
5.54748
2.13589
1.99959
0.75663
3.07177
1.8699
0.900784
0.639368
-1.50095
3.239
5.26058
-3.14045
0.397097
-1.9979
2.011
0.876984
2.72868
3.38301
-0.0404539
1.15805
-0.920397
-3.02826
4.32269
-2.60261
-1.58276
-3.70684
-0.509905
-0.326956
-0.838146
0.116825
1.43319
2.49158
-1.51804
1.23209
1.45956
0.62748
1.57425
-0.107547
-0.852536
8.18365
1.00162
0.434037
1.59679
-2.85587
-1.31066
-2.6546
0.753086
2.02808
-2.61835
-0.526792
2.31781
-0.247199
14.4547
1.08736
-0.682755
0.038589
18.3172
0.4278
-2.02552
14.2131
19.4265
2.86087
20.4825
1.51056
1.61865
0.474364
19.1285
1.85425
2.00331
0.0825542
0.48108
0.236804
-1.7221
17.5543
17.288
3.18242
1.49962
1.16227
20.0704
-0.144195
-0.289966
-0.219346
2.13888
2.61341
-0.0388409
3.68751
3.09303
1.18684
2.31779
1.94957
2.88733
-0.390645
3.47857
1.11512
1.41282
-0.821477
3.12245
3.31064
2.97178
-4.23366
-2.13516
-0.255972
-0.635079
2.46399
0.261209
0.257586
0.506358
0.232776
3.0012
1.86645
-1.74815
-1.95196
-1.69162
-1.41561
2.61343
2.09237
2.29428
2.78089
15.5745
16.6413
0.623622
0.530975
0.927237
0.452476
1.0705
0.746855
0.509699
0.843123
3.36991
3.51169
2.70079
23.243
23.9051
-2.09163
-0.561
1.3633
-4.98999
-2.29444
1.52564
1.54341
-0.368249
-0.274131
2.55871
2.83797
-2.25668
2.19578
1.62131
1.75336
4.9057
5.03171
4.46575
-0.0659032
-0.135298
1.54193
1.39719
1.20581
3.25484
0.462722
4.11376
4.63478
0.135209
0.0398011
2.74573
2.80546
1.0817
0.309541
0.491752
0.335876
2.61192
2.73261
1.93651
2.78297
3.63873
0.0544748
-0.396617
-0.45187
-0.824778
0.507836
-0.663223
-1.91055
-2.99637
-1.02567
14.8366
4.76152
17.1872
-0.389838
22.6979
23.1833
-7.975
2.57697
0.547887
16.1112
23.6457
18.4511
20.1688
20.099
-4.28975
11.4081
18.5793
16.854
-9.89208
-9.22124
16.5949
16.5182
2.94303
-1.73893
-9.98412
-9.13033
22.2431
15.5858
-10.1968
-7.59344
3.96887
18.9831
18.4036
-3.27628
-4.83263
-7.47856
6.69606
3.86075
3.69362
23.3173
23.2727
21.8941
22.3193
-5.02183
-4.23816
1.56109
5.25272
-10.9962
13.5601
7.63538
19.965
-6.73572
3.193
2.69787
19.9022
3.60412
3.78782
21.5936
20.5423
20.9185
17.203
18.0162
20.1995
20.0185
-10.0225
-1.19387
17.6642
1.51898
3.79895
3.85577
4.11103
3.67128
-11.2964
28.8314
2.12502
20.3125
17.1326
17.0023
-10.6497
-10.1024
-11.0594
4.89344
17.1998
17.4993
-10.0104
-1.13593
18.4558
18.5115
19.0997
18.3348
17.8941
16.2272
6.4047
3.96976
4.38259
4.26612
4.86038
21.5273
-11.0675
-11.2732
-10.4967
-8.24692
17.7081
-6.01097
-6.28858
-5.47957
18.2348
18.3161
18.4894
-10.4878
3.11727
21.0756
21.4506
21.729
23.1734
3.07315
2.37036
2.425
2.24252
15.4195
14.8807
2.47017
-1.25115
21.1794
21.6328
-6.31837
-2.62617
22.4696
7.08747
0.310695
20.7694
20.3694
20.585
21.0031
17.8956
17.8086
18.319
3.43054
3.21882
3.11941
19.1594
19.7172
19.1614
19.5498
19.0972
17.9633
17.3658
6.06648
0.933164
3.65324
3.23903
2.36184
2.40343
17.0281
21.5863
-6.29027
-7.25276
0.466222
0.582712
0.461926
5.51129
5.43402
-7.6863
-10.1915
-10.8963
-11.5863
11.3455
3.59899
3.50291
3.24668
-10.4012
-9.52462
-8.7536
-8.54373
15.6178
16.472
17.3092
16.0747
-9.4813
-8.97335
-8.43209
15.8894
16.0527
-7.74803
-8.89982
16.4212
17.367
15.4606
16.6796
16.0762
15.6317
21.9175
3.17997
3.36708
2.23913
2.50284
14.8476
14.8659
19.6845
19.4483
20.2265
19.5811
2.0684
14.0274
14.1169
15.0655
-10.4925
20.5813
20.1563
21.3298
18.3869
17.7891
17.647
17.4938
21.2747
20.4047
20.5773
20.1876
-3.17333
18.2975
19.1006
19.0434
19.768
-4.6498
-4.12241
19.9679
19.566
18.2768
18.0892
3.84154
3.42997
4.17736
-7.38129
-7.02863
-8.00526
-8.62662
0.0554067
-1.00807
14.1333
13.8533
1.06158
1.10298
1.0907
1.58309
-1.01248
24.0631
6.06025
5.39103
6.90758
-9.207
-8.91183
-9.99767
-9.89821
15.9695
14.8323
15.2022
14.1366
1.83427
1.71524
1.84657
1.25206
1.29081
1.04138
0.616347
0.82588
0.760121
3.69932
3.46754
3.57335
3.92533
-9.54896
-10.0973
-10.7767
-10.6084
4.97437
4.67046
4.63455
21.9043
22.532
21.9802
21.5792
4.22491
4.9709
4.41166
19.9056
22.3002
1.66714
23.2767
10.4636
1.17645
1.15192
22.1448
21.9962
1.18747
1.21334
1.21619
1.63541
-3.94319
1.24958
-0.725839
20.2212
20.1112
2.56066
19.5054
0.590891
1.31469
-3.87902
-4.49012
-1.29363
-1.4947
14.8853
-2.91006
-3.24814
0.162359
2.24362
-4.20801
-0.148646
-0.0295763
0.13859
0.167006
-1.66876
2.7955
2.77245
-2.33378
-2.25865
-2.41188
-0.270147
-0.645631
1.5222
1.55999
1.38427
1.33123
4.24605
16.2402
2.04729
1.97395
-0.361263
1.45751
-0.556555
1.27241
1.34462
1.37349
18.2083
1.69622
1.64044
-5.96152
-4.77428
-4.63113
-2.0565
-5.82614
-4.15558
-0.487214
-0.403242
-0.473355
13.9199
13.1257
-2.50178
-2.25947
-1.8485
-1.40945
6.89446
-4.18182
-0.52386
-0.366608
-1.80313
-2.05698
16.354
0.207519
-0.689654
13.8466
0.248517
0.557009
25.1415
17.1653
17.4849
2.41014
1.40477
1.4695
-2.89633
3.32015
6.15657
6.82924
22.8111
22.8447
3.93922
4.36878
4.21092
1.34238
1.29775
15.1931
1.58404
3.64164
3.88669
2.13155
1.95268
1.81721
2.81825
5.47295
4.91976
5.88246
5.33228
2.99801
0.663871
2.10041
-0.312014
2.30106
0.648015
0.728517
0.843506
-1.53393
-2.19707
-1.02562
0.326178
-0.0532857
-0.536479
8.90706
10.1128
19.9183
20.3562
21.2066
22.7102
1.16115
3.16603
2.97664
0.601208
1.22815
16.2072
15.6509
-3.01828
-3.2275
-2.58831
2.25182
1.13897
3.15631
3.52933
6.95568
3.75356
4.3877
-7.62003
-6.78383
1.4105
1.57495
1.39564
1.61387
-2.19413
12.2074
11.5054
10.7561
1.8763
1.96558
2.06903
2.04407
2.17808
1.29376
2.76622
2.90942
-2.8065
-2.71724
-2.46481
-1.82534
-2.04473
-2.20478
-1.11056
0.862668
-1.69837
12.3272
11.442
10.3082
16.481
16.2648
4.86207
5.34727
19.1282
19.679
-0.227124
-0.70231
0.0596714
14.8941
15.1435
12.408
11.7575
22.7099
13.083
-3.92418
6.6179
4.22083
5.5365
18.3794
6.92775
-12.2328
-3.47815
-12.0018
8.12028
18.7232
-12.1606
-8.83029
19.107
-11.3455
-11.6934
-11.7946
2.06641
2.66453
4.51108
1.86702
1.33297
6.54072
-1.9922
-2.29683
-12.4808
5.49555
5.15902
-0.383655
-0.551498
0.0318514
1.39284
2.63281
2.16423
20.8474
4.32538
4.84451
-10.4705
30.7348
13.5821
13.5652
19.8457
-5.62584
7.58594
-7.00024
-11.4547
24.8034
2.48261
4.11924
5.7175
13.5997
-10.0066
-8.91406
6.29527
-1.0434
-0.193965
5.77573
0.887945
-1.82202
2.2707
11.9628
-6.16174
6.57684
22.7723
22.3813
1.40034
1.11386
-11.9542
4.84795
21.0621
-2.46357
-12.5991
8.44426
8.73441
7.51661
-33.0875
9.45484
5.53142
3.68347
14.7583
14.6762
6.10212
-1.71013
-1.94546
-2.40591
-31.1013
2.53649
-6.20094
-5.9907
25.9238
2.84088
2.38227
20.1391
19.3969
-7.67129
-7.69146
9.21299
-8.71463
18.664
2.8662
5.31727
2.6566
-4.11337
15.6353
2.09789
1.86812
4.25864
-1.59207
-0.588074
-12.8494
30.4797
13.3451
-7.53726
9.19125
8.89719
13.5809
13.6429
-2.05498
-1.80075
-11.4325
-24.1995
-2.859
-6.0042
-3.57388
15.0808
0.352521
-10.1803
23.701
-16.6082
2.61757
-11.9684
-11.9888
1.96327
2.17804
0.101291
15.327
4.68508
-20.5816
-5.40965
-5.86615
3.85897
-8.36099
-1.12131
1.22568
-7.67572
-7.21563
5.62139
19.6456
15.7105
8.18296
4.45516
9.12111
13.6822
13.7065
0.0154335
6.85637
0.503069
0.752738
-1.23084
4.34324
2.45796
2.27522
12.6003
13.6181
18.3677
18.7255
18.6668
18.2392
-0.507416
4.88198
4.93587
18.8934
19.0093
11.8888
2.82699
12.6122
23.1897
14.4307
14.0272
-2.72482
2.51701
-1.98271
14.8684
15.2614
0.379078
2.86697
-10.8222
5.36264
-9.90449
5.2149
5.05227
18.7103
3.20873
-15.5585
2.17177
-10.6414
1.34568
2.14558
13.0847
14.1187
13.628
11.8425
4.40946
1.83103
-12.6772
-12.4714
14.7948
3.35735
3.17406
2.64685
2.17172
3.02841
11.4074
-4.06066
-4.35385
-19.9897
-1.3941
-0.712751
-0.739305
7.59783
7.42435
5.92882
6.21239
-1.25611
-1.5497
-5.88878
10.8849
5.94532
5.82422
-7.94484
7.38635
-21.3542
14.2885
-11.103
-11.1058
-19.1079
5.97105
-7.07761
3.41038
2.19415
-8.9665
-7.07317
2.35768
15.8588
-15.1886
8.71153
9.16491
-10.9332
14.1289
-3.78508
30.3794
3.55851
4.13649
5.87386
3.38134
3.77958
4.68476
4.89942
3.10608
5.63727
-8.97071
-8.4628
5.93428
7.91315
8.2387
1.74547
6.73697
7.5211
3.60975
-4.82586
-5.582
1.3793
1.63226
-0.493
-5.6281
-5.73442
4.58662
4.97227
27.0023
-12.1557
-12.2595
0.127162
18.5767
5.07487
5.36423
-12.2187
-12.3322
3.25017
3.56737
4.42939
15.2465
15.2782
-10.2942
-1.31996
3.15098
-11.0779
-11.0415
-10.903
22.1004
22.0568
-4.59327
3.90457
-11.798
-12.0182
7.22099
6.84244
-9.24801
-9.35334
-9.08134
13.8833
14.0283
-12.4439
-10.3186
6.57072
7.26882
-12.5516
-12.6004
21.1516
-7.53083
-3.42664
-5.01579
5.12953
20.3135
-2.00027
-2.38737
2.35695
1.7952
-6.54226
-7.11073
-6.57995
-6.34278
-5.59369
4.14704
4.35291
3.75971
-7.62476
-7.92319
18.6
-11.0308
-10.4713
3.46237
-11.67
-11.1316
-1.86739
-1.40199
2.86701
13.5533
13.8341
-6.48194
-6.77491
5.47121
5.78543
5.51432
6.21684
6.74696
13.9969
7.07633
22.6675
-12.1066
-11.7339
-12.5453
-12.6589
-4.23528
-3.01481
-11.5071
-10.5655
0.855397
0.881071
0.545189
1.42183
-0.0179836
-1.887
-2.02469
23.7711
19.955
-5.12462
2.59918
2.62074
2.35113
20.7647
2.03551
2.04173
1.69145
2.34661
2.63072
2.75828
3.9452
4.59408
13.581
13.3436
13.7451
13.5173
7.50305
8.02566
16.3743
2.02334
2.11155
1.98426
2.24295
2.98579
19.4196
-10.1334
-10.0146
20.4758
20.7195
13.5979
-0.406352
-0.277536
-0.199253
5.98291
1.04475
0.86272
4.05715
1.84018
14.2818
14.2966
14.1037
-3.50239
-3.88825
-3.35284
4.77251
13.8376
5.10062
4.51947
-1.91822
19.4086
6.81738
6.77734
6.79628
-5.00898
23.8682
-8.62951
15.1828
15.2392
28.7163
30.1554
1.52056
-0.825598
3.88955
-2.41989
-2.0816
2.98639
14.2231
2.74907
6.24089
-11.995
6.10063
6.38273
5.86092
20.3646
2.57999
2.56813
2.48026
5.98328
6.86527
30.6522
16.3012
16.3875
-2.3209
-1.81467
-1.97632
24.6208
28.9778
1.84425
21.1555
21.8035
15.8526
15.5908
15.3845
15.6529
2.0364
20.3916
21.1555
-10.2932
30.9957
4.41286
4.68789
3.80208
4.86922
8.12509
10.2101
2.12828
1.7767
3.15031
3.53438
-12.7872
2.8692
3.39091
3.58516
1.68567
2.10053
7.73204
6.79323
10.3624
8.76553
18.5812
21.0494
1.19193
31.1736
-7.22647
1.477
14.8732
-11.7966
17.2581
17.5302
14.1708
14.3447
5.41041
5.48006
8.22596
7.83514
8.47213
3.79718
3.79231
4.10193
6.25913
6.14925
27.1782
24.968
31.3589
0.520578
-12.9098
3.13979
3.30794
3.28902
3.71343
4.99721
15.0885
14.6574
1.7768
1.72326
1.02858
4.90974
5.0865
4.27583
15.0866
5.02902
3.14982
3.15126
5.52388
5.40025
-8.1743
-7.29571
-7.42717
31.253
19.1643
18.6311
20.3081
20.942
5.81664
5.96857
22.5559
3.29543
3.22577
5.77913
-9.60974
-9.15101
-9.18624
13.683
13.6056
13.6971
-11.6624
-11.6585
0.941564
-8.14808
17.1911
16.6314
13.5681
13.4293
3.09137
2.7605
2.26613
2.46852
5.18968
5.08683
14.3906
-8.33367
-9.16646
-8.65666
5.80704
5.7039
29.9138
16.7156
16.7805
-10.3833
-11.0281
31.4844
24.6216
24.67
19.4758
19.9446
-11.0511
-11.1936
-5.87941
-5.51283
-6.03562
-9.20024
18.7756
-12.0717
-12.5441
-12.2388
-9.04223
-9.59767
-8.29802
-8.09336
31.4244
31.3367
24.4947
24.399
28.6709
22.3238
20.1293
19.584
12.7176
-4.68005
24.7919
4.14375
3.77581
3.99561
2.00108
1.77851
1.1548
0.0587718
0.528428
0.292565
0.848685
5.6479
-10.268
-9.7611
-10.4955
14.5137
13.9559
14.2641
1.45596
1.14117
0.905016
2.70422
3.0132
2.7683
7.57988
4.01851
4.36496
4.27889
6.63236
6.05541
-8.54401
4.06392
3.57169
3.71131
31.274
31.1089
0.787668
0.705183
2.78553
2.17768
-7.4306
3.04307
3.03511
2.39717
4.64598
5.03659
4.90838
5.18239
0.322569
0.579065
0.434529
-1.21364
-5.8895
-10.0677
-9.94235
-10.4755
-9.88169
16.8832
16.3503
2.06641
2.8215
5.89375
5.05706
-14.4016
7.97072
-6.64261
-7.31238
-4.01139
30.9265
-10.9615
-9.43852
5.45726
6.0197
4.69483
3.10824
3.07374
22.4279
-3.06744
-2.66373
-2.15382
-10.012
-10.4559
-11.2961
-11.1224
-11.3323
-10.5838
-11.9293
-12.0964
15.8707
15.4925
2.05844
2.09899
2.46179
31.065
18.0754
24.1381
13.5726
-8.47846
-8.36361
-8.35883
-7.96654
0.572556
14.8444
15.1291
14.6622
-4.08541
-4.47662
-3.439
-3.18471
-9.73894
-9.9554
-11.0575
-10.7679
18.7742
18.7889
19.2804
19.1232
-10.0427
-9.43641
-9.08133
-8.58371
21.6073
-12.8444
2.148
3.02393
2.39538
1.72852
-0.186582
0.275992
-0.0150052
-5.13174
-10.1923
-9.53444
-9.3877
2.14809
2.42527
2.91477
4.69059
4.68523
4.17852
-0.476223
-0.736702
14.9966
15.1395
14.8237
14.5536
2.41947
2.31336
2.3051
1.95599
-10.7263
-11.7978
-11.6081
-0.230822
-0.776124
5.3066
5.74133
5.17937
-7.69515
-7.86794
5.50393
5.32616
1.87371
2.46083
1.18009
1.93614
5.46715
5.44437
5.66514
-5.47882
-4.5035
-9.67455
-10.4717
-10.3772
-11.1229
15.0227
15.1216
1.19994
16.6923
16.7232
18.2296
4.11069
4.24311
4.00395
4.58746
23.699
-1.36425
-0.599201
-0.36643
0.452977
2.89682
2.56821
14.5297
14.5349
14.7259
15.0086
-1.19995
-0.699948
-1.36411
-11.039
-10.9234
-11.3531
15.6108
15.4992
16.6944
16.6652
-0.525008
5.73382
15.1044
-4.76047
-5.05788
-3.34212
-4.18898
-22.7384
7.18655
-22.3807
-22.2947
2.77698
3.1075
0.985602
1.23042
6.22566
15.6522
16.0226
6.34692
6.26805
6.62279
0.203727
-0.294766
-9.86599
-9.43326
-9.93736
-10.4126
-11.4041
-9.86284
-9.39817
16.0667
5.57812
5.57188
-11.4324
-11.4006
14.772
15.0338
15.0238
12.555
-0.792245
6.135
5.00196
4.35073
4.34267
3.25716
-6.04727
-6.15277
-5.5148
1.55118
1.21385
1.07188
17.6959
18.0313
3.47449
3.03557
-10.3111
-9.56898
-9.47587
7.88365
8.13083
1.83076
-12.2505
-11.9933
-11.5884
-12.4668
-12.5883
20.4029
19.9488
19.7006
-1.94692
14.0135
14.0201
-0.104926
-0.127869
0.925957
4.32677
3.61483
-8.44465
-8.71383
1.7327
1.16619
17.3896
16.8494
3.28998
3.42709
2.35649
2.46122
6.23129
6.12552
6.10883
2.75548
2.91496
3.40685
19.4001
18.4992
2.13221
1.72319
1.39544
1.678
4.17922
18.5362
18.7124
18.1632
20.4549
20.9297
20.35
20.3038
23.2741
17.4991
18.0091
17.5797
6.45556
6.87795
15.2725
15.3416
4.61083
4.77355
5.11186
9.36686
8.46759
-9.18471
-9.58737
-7.86041
-8.33814
18.961
2.44947
2.11597
18.8762
18.4574
17.6448
18.0013
1.62153
1.72169
1.39028
-12.1881
-12.3838
-12.2964
6.51873
6.98364
6.76983
14.4079
14.1724
18.0228
17.897
-1.87524
-1.65812
-1.36882
14.11
-8.36978
-7.87067
-7.97754
3.07481
-4.25542
-5.01642
-4.71102
-5.14329
-0.976202
-1.53309
-0.654054
-0.843189
3.62615
-10.6027
-10.5367
-10.0728
-9.78686
4.99265
3.18514
3.29887
2.82902
2.62912
3.61361
3.45981
3.38383
3.10709
19.6091
16.8989
17.3031
-8.00052
-8.14712
23.1411
-12.2932
7.67956
7.33228
1.07961
1.29191
0.971179
0.619465
1.0736
-8.74447
-9.41534
-22.0856
-21.3907
13.5739
13.6701
14.3502
14.7229
4.98186
1.22472
1.58164
2.72986
-24.546
14.3094
14.6554
13.6187
13.6347
-6.05252
-5.94746
-5.10556
-4.56009
2.68208
2.85349
3.18078
4.71788
-11.3095
-11.8587
-12.5661
-12.3877
-6.22085
-5.58419
-6.74856
7.40897
7.09676
8.18774
15.2524
14.9288
15.5306
15.3339
7.58756
7.6088
-1.19209
-0.130259
0.535604
0.57459
15.5046
17.9656
17.7056
-5.75491
-9.92356
-10.7952
17.7442
17.7201
5.15795
5.24986
5.36788
2.65952
2.88417
2.60283
-7.30108
-7.26359
-7.29979
14.7672
14.501
14.3762
14.7944
18.4619
14.8786
15.1019
14.3079
14.3914
-12.5056
-4.90067
-8.4678
-8.5019
0.245859
0.259251
1.35718
1.39821
3.85422
2.60565
2.00957
2.49676
2.75569
0.667129
1.81647
1.17787
19.2528
2.0764
1.31802
1.15079
0.377274
0.944497
-11.5839
-10.8242
-10.6979
-9.7123
-9.38948
-9.089
6.92137
20.7434
4.78267
18.578
18.6837
6.33818
6.06617
6.11755
-11.5999
-11.9057
-11.5802
2.68205
-9.36747
-9.9786
-10.4144
20.5779
20.6383
4.94619
5.33819
4.88651
5.10275
1.91582
1.77315
18.7945
18.5088
4.49804
4.26057
4.23297
4.80678
3.15149
3.47212
18.9482
2.18138
2.45302
2.20092
2.99813
3.64624
3.82174
-19.9239
-9.68293
-9.82481
-11.549
-10.9509
18.7829
18.3411
18.0175
18.4064
-2.97614
-3.84431
-3.38519
-5.53681
-5.48446
-4.55985
-5.33384
-16.494
2.67222
3.27601
-1.57608
-1.14858
-3.82474
-4.3917
-3.32217
-2.70177
1.90449
1.6672
3.82485
4.32354
20.1788
14.7264
14.3292
14.6903
-10.701
-11.1182
-10.7521
-10.9612
-7.45904
-6.49782
-8.14333
-8.03146
-7.44239
-10.3738
-10.3967
-9.29747
-8.87655
14.3555
14.4992
0.65047
0.651605
-10.4027
-10.2026
-10.3555
-10.3361
2.93069
-10.794
-10.5962
-11.0168
-11.5184
2.61921
2.83102
2.97702
23.7037
19.0296
-7.71911
-7.09155
-6.59091
-6.09496
7.88583
7.73034
-12.3111
-12.4173
6.94988
17.5688
2.67864
2.61622
4.53984
-12.7283
6.52721
6.38147
6.37981
-4.51041
-11.372
19.6727
-4.34083
-5.16741
-5.80255
-4.9238
2.29236
2.58752
2.69165
19.1146
18.8859
29.4308
-0.398854
15.6998
3.27942
3.50792
2.62719
3.21954
1.15158
1.55659
2.46303
2.18138
3.32488
3.68357
4.01823
3.65043
-7.0382
-6.31855
-5.4674
-6.00374
3.58414
3.64594
4.78719
3.86087
-4.55321
-4.02475
-4.93448
-8.45825
21.0132
-2.74498
-9.26702
-9.27571
0.988706
0.989401
18.2482
-6.18974
2.2268
2.49357
2.54332
20.529
8.18877
7.92548
8.62522
7.88283
6.08849
2.5074
2.13567
3.1238
3.44121
21.7884
22.3173
21.4153
21.3668
2.53488
2.50402
2.33842
2.1224
4.34636
4.72011
4.01678
4.85481
5.42234
5.58542
5.7832
5.43907
21.4075
21.133
20.0182
19.9754
19.4884
19.1662
-8.23263
-8.19264
-9.89132
-9.2808
-0.146581
-0.02464
-0.49496
6.4239
-10.0867
-10.7277
-9.7525
-7.8045
-7.29975
-6.88286
-7.01435
-7.82023
-7.05988
-7.50233
-7.81882
4.19371
3.79263
29.1898
17.2925
16.9331
16.3517
16.1664
-6.7164
-6.29257
-6.6649
8.7574
-12.3078
-12.4095
-12.3125
-9.90799
-10.2335
2.75964
-10.3378
-10.4207
0.434997
0.0127084
-0.683322
-8.24368
-8.14182
-6.78579
-6.97694
-9.58819
-9.23375
-8.82028
12.0552
10.6455
-3.52747
-2.92915
-3.57682
28.6083
-6.90737
-6.71554
0.700448
0.469533
8.34767
8.83196
8.88211
8.60195
-5.32417
-4.52798
22.642
23.4098
0.918766
1.46328
16.1277
16.3331
16.1389
16.2554
-5.61608
-10.5703
-10.5154
6.75647
7.10815
6.21751
6.76238
4.00174
3.6642
3.48866
4.2927
3.27335
3.59399
3.4043
4.04006
2.87854
3.01476
3.5911
-8.32497
-8.11905
-6.91261
-7.25842
-11.3319
-11.3144
12.2615
-12.0966
-11.9222
-11.4651
16.3848
16.6345
16.8738
17.0719
3.79585
4.4545
4.01551
4.35868
4.40677
4.00061
-12.4755
-11.9693
3.26117
3.70298
1.49823
2.39147
1.92633
2.62083
2.64864
3.05696
15.6572
15.9046
16.0005
15.935
-8.08499
-7.61639
-8.11414
18.5275
18.0698
16.9788
17.0553
4.98938
5.04764
4.86386
19.1836
2.95201
2.98536
2.7548
2.31239
-14.8987
-14.5189
-18.5131
20.3689
0.372387
16.9624
18.6322
19.4999
24.7506
-12.3595
20.1896
16.0463
16.2901
14.4207
27.8539
19.1957
22.5774
22.8851
19.0168
19.9174
-11.2646
14.7168
14.4705
0.830462
16.5614
-4.81103
14.5512
24.053
24.3062
-12.8997
16.6101
2.86226
19.2506
18.813
18.5853
26.2629
-0.596042
0.368377
14.1912
13.9364
-13.9532
16.2992
0.791032
2.33928
3.53526
5.13204
5.92425
-4.40896
26.1894
19.657
24.4569
24.7072
24.045
-2.75043
-3.04307
26.7849
-6.20671
18.8888
18.7039
25.7858
18.4033
-0.799313
-14.9471
0.792712
0.906345
29.0396
-17.3927
-17.8814
14.3937
-21.4016
21.2742
21.825
21.6514
9.21964
9.00751
25.9968
6.28079
1.6595
1.86722
-18.2628
13.9185
15.1973
25.8941
10.6833
17.6332
19.9548
30.3333
21.1291
26.0099
3.23012
18.1734
22.1436
22.4366
0.936742
5.66088
13.7371
16.4994
21.455
21.2173
2.56562
21.1586
30.4599
19.37
19.4004
25.6922
22.9842
22.6047
26.2221
26.9491
23.0287
18.7006
18.5315
20.2043
25.8466
26.7602
18.0809
1.18895
26.632
10.9737
22.5522
-0.950553
23.3318
26.4185
26.5255
26.651
9.75245
18.9427
18.7117
-25.8332
29.641
28.9655
18.4183
-0.537749
-0.123936
-19.3288
23.2023
-22.7223
-21.9881
20.4101
13.4668
13.9077
-0.962551
12.1699
0.548314
0.487844
18.7296
18.898
19.759
5.24524
4.87419
20.8041
23.9287
11.8718
18.8828
28.998
24.0465
18.7817
19.3384
16.41
-11.542
-11.7844
-11.5147
24.462
18.655
-8.58944
-9.0432
12.2542
12.4875
-3.6154
-4.41105
-3.98113
7.29245
30.6285
30.6194
6.35095
1.64245
23.5389
23.3715
23.3178
30.4938
30.202
23.6731
23.4766
16.5849
30.2132
23.8098
23.6534
30.3569
30.1538
22.8078
23.0961
12.8136
23.8552
23.5778
22.0837
21.4422
21.2577
24.125
27.5593
22.2339
22.5714
25.9644
25.9475
18.9436
16.6019
23.87
23.6937
2.3367
24.0205
2.40031
2.95252
2.94931
-10.5169
-8.68412
30.0259
-7.64381
21.9593
2.75639
21.2667
22.0271
27.6194
27.553
27.3494
17.4977
29.6696
1.31027
17.7375
16.7649
23.9286
24.2444
0.907886
2.72259
-1.29896
-0.855211
29.3251
20.1769
0.669212
21.5976
22.0419
20.2837
28.8177
-20.9753
7.0748
6.48253
22.7841
-2.44691
27.7205
27.8173
27.6466
26.7823
-5.18506
-5.10863
-4.71995
22.077
21.7294
-0.955765
-0.947479
2.99137
6.35025
-19.0803
17.5462
20.3264
2.78521
1.05393
0.892986
21.6105
2.03438
24.9722
24.7014
18.7316
25.8754
-22.4731
20.5139
21.2976
21.3029
21.0775
13.8435
21.8631
22.0035
-1.32597
-3.41212
26.3061
7.95654
3.88195
3.85392
18.5728
6.36051
6.68381
-2.74265
-3.02664
17.0254
-20.9639
1.13452
0.740036
16.5664
16.7771
18.9633
18.722
2.51228
3.75583
6.53783
5.87339
21.7607
-12.5031
-12.4401
6.55702
22.5515
22.9955
14.9159
23.8979
22.3439
20.3131
18.1504
21.747
16.762
-0.265339
27.053
26.5211
-15.5195
11.756
21.6703
-15.6108
6.48332
7.10292
6.57621
-15.5007
7.72555
13.8495
-4.18229
19.1155
17.4323
20.0648
16.0013
15.6622
-1.62034
24.4741
24.3708
22.3729
-4.38533
-2.3647
-2.50996
21.97
18.5265
18.4747
4.53077
4.01489
-11.4099
23.837
22.9227
23.6467
22.6398
-0.878251
-0.452947
3.58914
3.28477
3.70848
3.94362
2.69907
20.8452
20.7856
3.41141
27.4966
-5.50665
7.51228
7.14015
7.07034
-10.9572
-10.8149
-11.1799
-0.30594
-3.36307
-3.75919
3.24413
2.7817
2.83797
0.689359
13.019
-8.98093
-9.91747
27.6563
27.8544
-1.60721
19.2398
-11.3926
-11.2491
-12.4742
-1.8669
21.822
19.7507
21.9189
17.1773
28.1184
23.1163
22.6534
1.44361
1.49549
1.66538
19.3733
19.6366
28.1137
2.36013
21.9643
17.7127
22.4821
22.5633
21.9854
9.05589
4.53193
-10.8118
-10.7849
-3.61694
-3.94827
17.9631
17.9217
1.68608
21.9367
19.1793
28.079
-0.190375
-0.827812
1.07439
-3.739
0.988977
2.1185
2.01122
23.9107
21.2157
3.30687
3.19028
2.59784
3.05064
-5.12502
-5.19933
6.41898
6.06583
7.53674
8.28942
26.3539
1.05986
0.555023
-6.3126
0.596245
0.639497
0.647254
-0.690205
-0.90266
1.03089
0.945497
0.708295
-0.502581
21.3292
21.2232
20.5772
-6.36881
-7.67156
-7.8109
-1.25821
-1.08017
-1.01252
-11.6642
-12.1348
-1.18536
-1.28393
8.1021
7.73913
21.0807
21.4105
19.4623
19.8981
10.0015
-12.2086
-11.8718
-11.8107
3.23315
23.1945
23.06
-0.857993
-0.346826
20.8391
16.7182
23.0698
22.9272
29.6923
21.527
21.5993
21.5184
0.906342
0.919263
20.9148
26.8233
26.676
29.7044
29.4218
7.2827
8.55211
-3.12407
-2.41102
-3.34841
1.4777
-10.0072
-9.73906
-9.03462
-7.79586
-8.26626
-3.25046
-2.95188
-4.87351
-5.18613
21.0026
20.8548
0.921628
0.998049
-0.149404
-5.4678
20.4085
29.7959
19.0164
28.7715
22.308
22.4643
22.5823
21.7832
-0.913189
-9.82007
-9.59597
-8.32662
-8.50877
6.53257
6.19618
-10.3686
-10.8595
19.3496
14.2008
20.8318
23.0564
14.768
23.4921
-8.12165
0.398518
28.5546
28.3206
-1.10673
-1.0858
20.7096
-11.1463
-11.48
25.6183
-3.63762
-2.79757
-2.66068
15.2701
15.2347
0.918027
25.4659
22.1037
15.5503
15.6501
23.1265
23.3593
22.6752
3.25918
2.40811
3.14049
-1.58789
-0.612482
-0.996943
2.95109
2.77731
3.08656
4.12165
4.48589
20.3951
20.0011
20.326
7.65243
2.91905
29.0468
1.22953
1.23319
1.26725
2.12653
-8.19021
20.7317
21.3499
20.5012
21.7619
5.90097
14.0559
14.161
20.884
20.3635
14.6415
12.8608
14.6829
14.2803
13.8465
24.5634
24.7319
10.0455
9.70729
-8.45052
4.2268
3.73931
-1.93575
2.82226
21.103
23.6174
23.094
2.292
25.7118
2.02601
-18.8005
21.8145
22.0509
21.8934
22.8421
22.4297
11.3138
-11.8219
-11.9741
-12.1466
-0.306608
23.7668
22.9893
22.9643
2.11735
1.06582
5.56042
5.66176
14.7986
-1.16113
-2.24453
26.4169
26.1427
21.5605
21.6873
21.7855
-0.511551
26.3866
26.1326
1.24527
0.503979
14.031
25.732
25.6911
18.6487
1.29575
5.82428
5.67563
18.5717
3.69421
14.0174
23.505
12.657
13.1211
18.6316
-0.659581
23.6667
-2.87957
30.4413
12.9889
13.0743
25.476
25.2996
25.1373
30.6971
23.8442
2.37357
18.7232
19.0054
-12.5759
19.5103
4.02155
3.09746
1.44037
1.35279
1.48662
4.18084
3.72633
3.62601
7.39743
7.74864
7.84322
19.9247
20.1026
5.52001
5.83566
-11.7806
-11.618
-11.6143
-1.46275
-1.36256
1.82393
1.87746
8.29504
8.93083
9.82273
13.4662
13.5572
2.21365
2.40926
-12.7318
2.65651
2.11595
1.14808
1.12399
27.1394
5.3011
17.8455
17.1259
-0.0162628
20.9101
-10.7825
16.6495
9.8006
-2.67024
3.4176
3.53575
-10.9958
-10.7375
-10.5418
21.7332
15.0527
15.8854
16.6616
2.35502
2.10471
1.9227
21.8173
16.5319
16.6826
16.6261
16.093
10.6145
3.41376
3.39381
-2.03507
16.8095
16.858
16.8013
15.0511
15.1921
20.0647
1.40784
1.94518
1.71351
-12.6641
-12.7676
-8.87816
-8.19126
3.04419
3.15678
21.5255
20.6351
3.79364
3.8563
19.5894
18.8659
18.5998
-2.98468
-2.55566
6.18979
6.36897
22.9563
22.8936
0.31046
-10.0371
-9.86913
2.42179
2.23054
2.62841
-11.6224
-11.8133
1.09435
1.04947
17.8733
18.2441
18.219
-11.2558
-11.0027
-0.592872
-0.398916
-1.08601
-11.0504
-10.4484
-9.22753
-9.12658
19.1965
1.95314
1.8237
-10.1729
4.23476
4.40749
22.475
18.754
18.7497
15.1246
15.3929
19.6879
1.81711
0.461927
0.321863
0.874454
0.979334
20.7712
3.98647
0.268699
-11.4051
20.3418
20.3732
-8.91217
-8.38751
26.4347
4.32818
12.8617
13.0386
5.04179
-3.57515
13.9674
13.9812
-12.8322
17.966
17.8702
26.3379
18.7092
18.9847
6.3445
-12.5521
-12.5054
4.28919
15.7882
15.7727
15.9594
21.0624
21.2207
21.5856
21.119
20.8689
-11.1361
19.9304
19.6274
18.6907
19.568
19.1018
29.0097
29.3703
2.7759
3.11134
2.92275
9.52233
9.14077
18.446
18.2411
18.5281
23.428
-5.10177
3.58771
3.29087
2.43575
2.28917
20.4662
5.56085
4.7003
4.76592
-12.5255
-2.75038
-1.6663
-11.3204
-11.6816
-0.196504
-0.239944
-3.78098
-3.31474
-10.7443
-10.3292
-11.0168
6.72207
15.9998
16.3202
-0.815518
-0.417762
-0.436269
19.3588
19.3766
19.3598
-0.790671
-0.695918
-0.923357
-11.8513
-22.6241
4.1323
4.03404
-9.65366
-9.71928
5.72851
5.74107
20.6183
-11.0453
-11.6215
4.16013
4.06475
7.08908
6.87026
5.74198
6.19954
7.17561
18.704
19.0222
-9.50646
20.4309
20.2071
3.58606
1.31361
1.77249
1.91672
1.2823
-5.52412
-6.07335
-5.8951
7.14902
7.86516
9.2051
8.67378
20.5319
20.7973
-1.27813
-1.41025
3.19755
3.18695
22.1498
21.9111
17.5972
17.2
20.6101
-6.34352
-6.83014
-6.77551
1.82566
19.7674
17.8675
17.6762
5.26343
5.2258
23.6647
23.8956
-10.8918
-10.7405
7.39334
7.24825
7.70292
19.6496
19.7958
4.11507
4.50302
17.3168
17.1968
19.9581
19.7146
-19.6671
0.254309
2.73934
2.96406
-2.58142
-4.58567
23.5627
-10.2889
8.48736
-3.73151
-3.87333
9.42551
9.52053
-12.4762
-12.5005
-0.131366
-0.0566182
-0.482746
2.83775
3.05502
0.719893
1.29765
1.02021
24.0699
23.9332
30.9817
19.2517
19.1054
18.7047
18.9111
1.27121
1.62469
1.29433
8.82992
8.66911
11.0565
0.363888
0.108263
-0.109301
9.28965
8.97569
14.2885
20.2387
3.70889
12.4182
12.2846
-7.73016
5.53485
3.24701
6.9594
-14.5583
9.56767
-4.5501
-3.39565
-3.76521
4.8196
5.20013
6.83381
5.29753
-5.29028
-18.1687
-0.0809546
6.19913
6.78111
6.82845
9.14758
10.9175
-12.6448
11.8046
2.84727
3.73051
12.4774
3.95523
-2.61771
-1.81101
8.41119
9.1606
3.44713
-7.60756
-13.599
-6.24729
9.33768
-2.5183
-0.746226
9.46647
8.58545
1.74027
1.65713
-3.1063
-3.81144
-3.91035
-3.27046
-2.56205
2.79408
1.49675
9.6884
9.88737
4.06642
3.7638
18.286
3.8257
15.5707
7.95655
-7.76567
0.354473
11.301
4.22616
7.63239
2.32935
11.3418
14.9343
5.74056
8.86245
6.83839
3.93504
8.57922
4.46924
4.66213
6.56713
6.53264
-3.65699
-2.39438
-1.45317
15.4329
-6.46912
6.15137
-12.7756
-2.90556
11.327
2.05662
16.0518
1.65325
1.03213
-9.61237
-9.72583
-3.96492
-4.87329
2.64166
-1.49396
-2.16073
2.20724
1.53737
12.7452
11.6734
1.6993
2.59378
12.9965
0.343446
-0.0183132
0.56728
-7.50726
19.7401
2.79358
-26.836
-10.4365
-14.7628
4.11986
-6.54876
-7.78688
15.0973
13.7366
-1.42977
14.6295
-18.1605
-3.51305
2.47733
2.31807
2.06885
1.79432
-6.40816
3.74353
2.11859
-2.21366
8.3968
1.60123
0.852855
-5.36937
19.0916
2.89517
14.1249
6.70876
6.56243
-12.7876
-6.53357
7.60793
-12.2206
-13.0104
17.8261
18.1114
14.9366
16.3301
-9.61613
0.753526
3.3186
2.73567
7.64922
7.29361
12.787
12.2179
12.6256
3.21494
16.9274
6.24762
-2.02699
1.09804
1.62449
0.73581
-10.5215
11.5246
-1.42731
6.97495
7.14022
-6.85476
-11.0064
18.3775
-10.5172
-11.3347
21.1072
9.93143
11.7127
3.56861
-12.155
-11.9065
1.25354
10.3831
2.80436
-11.0819
11.942
2.77968
-0.970461
-0.714356
13.3493
12.956
-8.78405
2.79735
-12.2531
-12.094
3.52005
10.6432
-11.6797
10.5178
1.8465
2.42523
12.6296
12.6358
6.8829
7.17817
-1.09018
-0.88125
1.67755
1.18918
0.894261
18.2488
6.20716
20.7998
20.8186
21.6092
-4.2754
-4.99173
-6.24175
6.65424
-2.02073
12.0589
-2.03196
-1.41487
-2.6665
0.553719
-14.6739
12.7372
8.5174
10.1558
9.89512
17.3822
16.4741
17.9373
8.85507
8.8774
-5.4632
6.02804
15.993
15.3631
-4.06703
-26.9047
9.67652
-12.9302
-8.47292
4.2722
4.86037
1.47073
1.63683
-9.22311
9.49771
-0.474267
-0.231144
15.2616
14.3465
2.14112
0.133257
-0.451607
2.92382
2.64231
-9.96751
-9.17444
3.41384
2.71357
10.9751
10.6759
10.3761
5.36889
5.94165
8.61968
7.4194
7.06503
8.24022
7.97196
7.21434
7.2845
7.41365
8.87849
4.00022
3.78822
3.78861
-2.03287
13.1363
7.25116
7.58101
9.79937
-12.6136
20.2222
2.03508
2.25701
-10.4468
0.185695
0.55114
-0.0645502
-11.1893
-10.899
-2.6326
4.51037
3.9211
-0.211292
0.593899
15.7696
8.53235
3.72104
4.41034
-0.0952154
-16.4489
11.3825
12.238
12.3769
8.42898
8.26055
1.82527
1.13327
0.638339
1.40055
1.77929
5.80597
15.5862
14.6256
4.96287
15.5325
16.1865
16.0501
12.044
12.1491
5.35983
12.3203
4.74168
5.03237
10.626
10.8071
8.89989
8.04582
3.65168
4.19892
12.4314
13.4778
-3.60771
3.06216
2.92203
2.91138
5.82918
-10.4052
-5.5284
9.20172
10.004
11.5256
11.0122
12.0406
9.61348
11.577
11.4266
19.0111
19.4393
19.0121
13.6605
14.3456
13.8844
12.7807
11.0432
13.2715
14.2646
1.38225
-10.8996
-11.2656
-12.4823
-12.3328
-0.240966
-1.36751
18.969
5.21113
4.80342
22.3407
-7.44263
-6.97153
-8.02448
18.7504
15.547
20.2926
20.4543
18.6396
5.59162
6.96868
7.72931
-4.84677
-5.88186
-7.20482
-6.63779
-13.092
1.67135
18.4477