/*--------------------------------*- C++ -*----------------------------------*\
  =========                 |
  \\      /  F ield         | OpenFOAM: The Open Source CFD Toolbox
   \\    /   O peration     | Website:  https://openfoam.org
    \\  /    A nd           | Version:  6
     \\/     M anipulation  |
\*---------------------------------------------------------------------------*/
FoamFile
{
    version     2.0;
    format      ascii;
    class       surfaceScalarField;
    location    "100";
    object      phi;
}
// * * * * * * * * * * * * * * * * * * * * * * * * * * * * * * * * * * * * * //

dimensions      [0 3 -1 0 0 0 0];

internalField   nonuniform List<scalar> 
44611
(
1.53325
-2.15944
0.626128
1.53323
1.44583
-1.44582
1.93872
-0.492889
-1.31942
-0.708307
2.02774
-1.31942
-0.0925867
-2.19401
2.10324
-0.56999
1.31583
-1.31584
0.180503
1.85461
-2.17615
0.730329
2.37673
-0.340613
0.412926
-1.73235
-0.801433
-1.20924
0.801433
1.30183
-0.562047
-1.35709
0.562047
0.753763
-0.603343
-0.824349
0.824346
-1.1713
1.3518
-0.011343
1.28993
-1.27859
-0.136934
-1.87465
2.0116
1.54005
-0.214068
-1.32596
1.21812
-1.21812
-1.10829
1.10831
-1.51391
1.51392
-1.19815
1.19818
1.52342
0.0165878
-1.92239
0.408487
-0.919826
-0.787111
1.70695
-1.62813
-1.27534
1.27534
0.122884
-1.42851
1.30567
-1.49981
1.49984
-1.28685
-0.220588
1.50744
-1.38045
1.38047
1.65868
-0.144736
-0.460529
1.51401
-1.05347
1.71808
-0.499928
1.3334
-0.215139
-1.11824
-0.710714
1.10052
-0.389842
1.19327
-1.46834
0.275118
-0.881737
0.881736
-1.146
1.04065
0.105347
0.959057
-0.959081
1.20038
-1.33733
-2.29641
0.82332
-0.823307
1.03072
-1.24478
1.85404
-2.06808
-1.62688
-0.629534
-0.828736
-0.798158
-0.898551
0.898555
-1.04017
1.02883
1.92737
0.0935728
-1.474
0.105115
-0.301618
1.21521
1.16153
1.73235
0.16706
0.538197
-1.23288
2.06162
-1.47398
-0.987633
-0.480688
1.29593
-1.2959
0.902888
-0.415499
-0.487339
1.33268
-1.14496
-0.18772
-0.788605
-0.620335
1.40883
0.000980048
-0.0816432
0.0806661
1.67678
-0.386852
-1.70624
-0.168344
-0.359117
0.916602
-0.557436
-0.0407381
0.0454318
-0.00469332
-0.13634
-0.614307
0.750634
-1.16387
0.453157
0.0109887
0.0630723
-0.0740587
-0.0358293
0.0106248
0.0252043
0.857169
0.216089
-1.07323
0.000661965
-0.000663351
1.47533
0.524194
0.241052
1.23429
0.799528
0.877239
-0.024072
-0.0117562
1.23308
-0.503627
-0.729444
0.920199
0.312882
-1.07621
-0.63
-0.265242
-0.810934
-0.989098
-0.473282
-0.920265
1.39354
0.00342714
-0.0441656
-0.00881567
0.0380284
-0.0292144
-0.732608
0.855514
-0.65405
-0.285009
0.939024
-1.17882
0.958247
-0.000294235
0.000293271
0.0919892
0.824633
0.994888
0.656344
0.866601
0.466085
1.16083
-0.294222
-0.0753144
0.638032
-0.562749
-0.365238
-0.484146
0.849417
0.413435
-0.751359
0.337928
1.14056
0.859434
-0.7531
0.760559
-0.00748174
-0.797187
1.07232
-0.890922
0.196756
0.694187
-0.87301
-1.11972
-0.849164
-1.44723
1.11441
0.33892
-1.45331
0.931034
-0.073848
-0.198426
0.749251
-0.550804
-0.970993
-1.09709
-1.44428
-0.850106
-1.09702
-1.62255
0.772436
-0.869296
1.27779
-0.347534
0.814152
-0.466607
-0.985864
0.174946
-0.420409
-0.540596
0.961031
-1.31628
0.895899
-0.261776
0.836387
-0.57462
-0.838739
-0.0815357
0.754852
-0.617806
0.833907
-0.896208
0.594603
0.051093
-0.0401042
0.0388967
-0.0477115
0.599348
-0.814487
0.853959
-0.686897
-1.50139
0.685492
-0.79664
0.111113
0.815901
-0.710803
0.905834
-0.0894973
-0.816313
-1.40576
-0.00146881
0.00147025
-0.0014679
1.07418
-1.0742
1.06909
-1.06905
-1.15505
1.36127
-0.206217
0.621842
-1.07162
0.449754
-0.293455
1.36256
-0.89952
0.583173
0.316355
-0.931191
0.0316792
0.818797
-0.619964
-0.198793
0.0302404
0.339665
-1.13684
-1.24865
1.24861
-0.439381
1.35959
-0.10651
-0.469391
0.00613809
0.46327
-0.153863
-0.31552
-0.648246
0.494398
0.374946
1.03131
1.40258
0.615472
-0.019821
0.978063
-0.08085
0.936374
-1.25459
0.361202
-0.845335
-0.287042
-0.933879
0.335132
0.598746
-1.11746
0.183572
0.0875989
-0.803321
-0.964086
-0.314509
-1.45697
-0.726644
-0.235475
1.73535
1.0702
-1.20332
1.30868
-0.0639848
-0.687357
-1.06155
1.70773
-0.646156
0.0851574
-1.42158
1.36545
1.99157
-0.860566
0.860559
-1.64071
0.780154
-0.00788584
-0.000571837
0.0084575
-0.0227887
0.0291378
-0.00634935
-0.00697187
0.00430207
0.00266978
0.0491771
-0.0573573
0.00817996
-0.00385238
-0.00570707
0.00955988
0.00590648
-0.00975865
-0.031529
-0.00755189
0.0390797
-0.594449
0.292757
0.301696
-0.0635576
0.0505112
0.0130459
0.0160339
-0.0658634
0.0498317
-0.00474256
0.0106492
-0.00472287
-0.00100969
0.00573256
0.0201801
0.00149911
-0.0216777
-0.000972095
-0.00740285
0.00837511
0.00601534
0.00423316
-0.0102485
-0.00268771
-0.00503471
0.00772241
0.00464514
-0.00458628
-5.88859e-05
0.00856785
-0.00211884
-0.00644897
0.0119472
0.000891576
-0.0128394
0.0231662
-0.0112193
0.000563166
-0.00636485
0.00580165
0.00594151
-0.00537833
0.636068
-0.439309
0.125674
-0.0279891
-0.0976847
-0.00507543
-0.00556636
0.0106412
0.0112417
-0.0168087
0.00556585
0.000249324
-0.000248628
-0.00796112
0.00307166
0.00488944
0.0123422
-0.00111333
-0.0112296
-0.019267
0.00632866
0.0129379
-0.0850109
0.016435
0.0685759
0.00285319
-0.00793402
0.00508088
-0.00821423
0.00528152
0.00293271
0.0992921
-0.0253093
-0.0739897
0.00545653
0.0351533
-0.0406153
0.0222675
-0.0177271
-0.00454155
0.000448407
-0.0168806
0.0164322
-0.0569625
0.0135862
0.043376
-0.0390686
0.0526407
-0.0135732
0.00235833
-0.0092238
0.006866
-0.00831691
-0.00144146
-0.00589744
-0.00911153
0.0150099
-0.0116046
-0.0330347
0.0384906
0.0383788
-0.0714143
-0.00357025
0.00976424
-0.00619399
0.0292461
0.0103083
-0.0395541
0.00839187
-0.00392161
-0.0044704
-0.00243625
0.00243674
0.00729284
-0.0246935
0.0174009
-0.00626498
0.00449307
0.00177185
0.042538
-0.029973
-0.0125673
0.0315141
0.0306404
-0.0621551
0.0558033
-0.0242897
-0.00479007
-0.00147494
-0.0181462
0.0199459
-0.00179978
-0.0058433
-0.0123028
0.00226404
-0.0113746
-0.0060669
0.00648225
-0.000415333
0.00434199
-0.00535657
0.00101461
-0.0234592
0.0394939
0.0219731
0.00962285
0.0105582
0.020248
-0.00791855
0.0113558
-0.00343751
0.29549
-0.254229
-0.0412569
-0.00674338
0.0026752
0.00406818
-0.631781
0.346758
-0.0199117
0.0140684
0.0895592
0.464187
-0.553726
0.055701
-0.0700777
0.0143758
-0.00126164
0.00741306
0.00407578
-0.011489
-0.000400747
0.000401188
-0.0538168
0.473057
-0.419241
0.0165384
-0.000693892
-0.0158427
0.00889659
-0.00428492
-0.00461167
0.00573167
0.00283622
0.00573811
-0.0111866
0.0054485
0.0126722
-0.0104744
-0.00219782
0.0121819
0.000490253
-0.0232277
0.0510434
-0.0278157
0.00497375
0.00392284
-0.0024807
-0.00426267
-0.00135532
-0.0101617
0.0115168
0.00189314
0.00851619
-0.0104093
-0.00392011
0.00551889
-0.0015987
-0.0069646
0.00304453
0.0062799
-0.000760959
0.0023114
0.0191592
-0.021473
-0.00941456
-0.0292936
0.0387117
-0.00993079
-0.0354143
0.0453467
-0.433262
0.36033
0.0729466
-0.0330711
-0.0059974
0.0194849
0.0292251
-0.0487099
0.0183312
-0.00332106
-0.00659035
0.0075676
-0.000977424
-0.00731477
0.000724413
0.0167865
-0.00460467
-0.0239434
0.0187893
0.00515263
-0.00110851
0.00658101
-0.00547245
-0.0121432
0.0390057
-0.0268644
0.030394
0.0228994
0.0161046
-0.00209867
0.0286058
-0.0265101
0.0205583
-0.0182476
0.0184591
-0.0100665
0.017775
-0.00770861
0.00398256
-0.0176976
0.0137153
-0.0104986
-0.0103783
0.0208769
0.0106752
0.00765617
0.000176445
-0.00272228
-0.026192
0.02
0.00619168
-0.0239932
0.0243255
-0.000332747
-0.0501854
0.0443254
-0.00120017
-0.00676101
-0.00533886
0.00569357
-0.000354835
-0.0246794
-0.56977
0.0326924
0.0241551
-0.0568468
-0.016398
0.0108002
0.00559862
0.0133666
-0.00692869
-0.00643741
-0.0321459
-0.00505929
0.0372017
0.331444
-0.525935
0.194489
-0.00441851
-0.00718569
-0.0903156
0.228093
-0.137761
-0.922602
0.308309
-0.00842162
0.00678155
0.00164063
-0.00811683
0.00961648
0.0377037
0.000323675
0.0273885
0.0103153
0.0289292
0.0075967
0.0123493
0.0115793
0.00320433
0.00914503
0.00322226
-0.0272938
-0.0184542
0.00717261
-0.0198156
0.012644
-0.0191234
0.000669993
-0.011951
-0.0271784
-0.0027607
0.029939
-0.0440346
0.0148193
-0.245722
-0.187531
-0.0240327
-0.0395259
0.0242558
0.0283846
0.0304476
-0.394917
0.495356
-0.100439
-0.513029
0.505531
-0.00291278
0.00291244
-0.00903675
0.00560317
0.00343376
-0.0391697
0.00702216
0.00443785
0.0178284
-0.434824
-0.487775
0.165428
-0.600257
-0.554298
0.0665344
0.000700629
0.0285456
0.023076
-0.0256674
0.00259142
0.0182272
-0.028739
0.0105108
0.000585204
-0.0110597
-0.00948138
-0.00789636
-0.00316343
0.0613583
-0.145227
0.0838736
0.248623
0.222834
-0.471451
0.34719
-0.0985681
0.560756
-0.00619211
0.011224
-0.00503298
-0.0105695
0.00844636
0.002122
-0.0167619
0.0196699
-0.0104408
-0.051015
0.0614557
0.0389744
-7.80742e-05
0.0285335
-0.0154976
0.0176191
0.0076684
-0.00632452
0.00698118
0.0025683
-0.00954949
-0.00270712
0.008156
-0.00544887
-0.0171594
-0.00210884
-0.00311928
0.0143595
0.0290513
0.0241507
-0.0532021
0.0421617
-0.0306679
-0.0114937
0.0323492
-0.031369
0.0335142
-0.0300867
0.00659558
-0.0024577
-0.00413782
0.514345
0.121732
0.583897
-0.0695381
0.887093
-0.421006
0.0837749
-0.00884142
0.002869
0.00597245
-0.00901122
0.00112528
-0.0129708
0.0104437
0.00252822
0.00327426
-0.0162448
0.0169411
-0.00649685
0.00637691
0.0183287
-0.0247045
0.00940379
0.00305819
-0.012462
0.00906221
-0.00647815
-0.002584
0.0036365
-0.00865583
0.00501921
0.00258382
-0.00792278
0.0032475
-0.00832353
-0.0104496
-0.00541543
0.0158653
0.0041934
-0.0146425
0.00991074
-0.0153258
-0.0228734
0.0111171
-0.00451513
0.0330485
-0.0095365
0.0118005
-0.00632879
0.0127058
0.0245062
-0.480357
0.547335
-0.0669941
-0.0221513
-0.00306073
0.0252137
0.00017829
0.0181508
0.01509
0.00953597
-0.0281154
0.0185771
-0.0120588
0.0215926
0.000114146
-0.0050823
0.00496817
0.00579597
0.000483949
0.00591011
-0.00459834
0.762794
0.00779658
-0.770577
-0.0535159
-0.513492
0.191959
0.321544
0.0197843
-0.00155737
-0.000495484
-0.0172319
0.0192887
-0.0414879
0.0717669
-0.0302807
0.440325
-0.546723
0.106401
-0.038641
-0.0305519
0.0691955
-0.0738738
0.0352355
-0.359683
0.595048
-0.235379
-0.579341
0.559508
-0.0594893
0.163054
-0.103564
0.133571
0.16191
0.00183549
-0.000328889
-0.00150594
0.259253
0.115946
-0.375183
0.265402
0.0152725
-0.0148242
0.00743117
0.00979472
-0.0172266
-0.00832275
-0.00843941
-0.0331223
0.0231927
-0.0167094
0.0506811
-0.0339691
-0.885789
-0.189482
1.07528
0.572906
0.372885
-0.945786
0.470801
0.286557
-0.757354
0.179846
0.290956
-0.509757
0.620862
-0.468306
0.633729
-0.305774
0.395341
-0.443477
0.362636
0.757982
0.0027491
0.00959307
-0.00848721
0.000568647
0.0297357
-0.0194275
0.00694685
0.0316157
0.00319175
0.0101751
-0.00885015
-0.00152638
0.010377
-0.00565853
0.00864897
0.508592
-0.0443954
-0.088118
0.44889
-0.360758
0.420481
-0.000403988
0.00078817
-0.000384244
0.00114078
-0.000467697
-0.000672046
0.0566581
-0.76658
0.709938
0.00170378
0.00152277
-0.0032265
0.165131
-0.103768
-0.0385326
1.17909
0.287074
-0.962684
0.67562
-9.01117e-05
0.000340133
8.15962e-05
-0.000171632
-0.753479
0.341045
0.412439
0.573633
-0.860926
0.492798
0.368133
0.0511684
-0.0160166
-0.266296
0.499091
-0.232782
-1.15371
0.533356
0.000698223
-0.000699263
-0.696133
0.671462
-0.00815612
0.00336601
0.775112
-2.02378
0.748108
-0.758791
0.0106858
-0.561246
1.63543
-0.597483
0.689341
-0.0918692
0.385373
0.255089
-0.640459
0.825704
-0.00196177
0.00196266
-0.248807
0.772664
-0.52388
-0.729167
-0.464319
0.799447
-0.623583
0.0196887
-0.0317489
-0.822925
-0.330826
-1.29491
0.828288
0.544278
-0.619598
-1.04134
0.466718
0.0477274
0.470065
0.870732
-1.34082
-0.825759
1.2958
-1.38702
-0.755995
0.340484
-0.676734
-0.0792861
-0.867716
0.00679408
-0.81106
1.33918
-0.814985
0.184135
0.39929
0.000373267
8.72466e-05
-0.000460313
-0.126248
0.369113
0.216491
-0.893223
-0.366302
0.155153
0.211152
-1.02172
0.625802
0.122315
-0.632596
-0.00214466
0.0018971
0.000247051
-0.956058
0.0253343
0.048232
0.00761538
-0.457141
0.653763
-0.196623
-0.344783
1.46848
-1.81327
-0.990141
-0.106886
0.904984
0.503849
-0.0185695
-0.0931473
0.0745792
0.83274
-0.501305
0.375595
-1.69
1.39655
0.905954
-0.408698
0.214608
0.194102
-0.992299
1.85284
-0.736433
0.533868
0.202564
-0.262781
-0.473658
-0.212137
1.23732
-1.44948
-0.0042069
0.00129348
-0.31129
0.778633
0.0466977
-1.31719
0.19973
-0.51767
0.0014552
-0.00145481
-0.0149833
-0.612354
1.542
-0.180726
0.610809
0.0587344
0.0405562
-0.0257869
0.0564268
0.241776
0.118558
-0.166918
0.0127354
0.610796
-0.602986
-0.557281
-0.288041
0.901766
-0.417745
-0.00189996
-6.15176e-05
0.647953
0.0301732
-0.483319
-0.592563
-0.0310141
-0.901292
0.308731
-0.533154
0.70925
-0.435979
0.554547
-0.724011
-0.267506
0.482123
-1.34769
-1.49242
0.649039
-1.04096
0.0555807
0.000222294
-0.251856
0.830896
-0.579046
0.0407488
-0.118983
0.0704937
0.0484882
-0.0441381
-0.0748489
-1.18777
1.0484
0.139369
0.229174
-1.27013
0.827922
-0.359844
0.0294772
0.234884
-0.264349
-0.0891606
0.118642
-0.00728785
0.0223778
0.0172181
0.0173947
0.00623896
-0.392523
-0.570158
-0.620339
0.0917343
-1.56566
-0.023561
-0.0636653
0.767692
-1.52507
0.757366
-0.873693
1.64139
-0.749962
0.214631
0.165811
1.23603
1.56566
0.169732
0.0393455
-0.023308
-0.0160392
0.00937158
1.64355
-1.02807
0.914107
-0.293141
0.00621108
-0.0993556
-0.0759702
0.0821832
0.875822
0.199464
0.688107
-1.06436
0.643368
-0.376252
-0.938078
0.480356
-0.656467
0.0460221
0.818682
0.525536
-0.588186
-0.901131
0.312934
-1.09709
0.538327
-0.0472472
0.121828
0.0349393
0.153585
-5.92697e-05
-0.000181613
0.000241227
0.000314054
-0.148516
-0.575483
-0.394233
0.0205111
1.58649
1.08656
0.000689349
-0.00488362
0.00419415
-0.00472313
0.00541251
0.00988569
-0.00622558
-0.00366012
0.00278418
0.0071015
-0.00338366
0.00901961
-0.0056356
0.00327208
0.00370072
-0.00697267
-0.000392823
0.00852364
-0.00813082
0.00604586
-0.00704603
0.00100017
-0.00360594
-0.00300042
0.00660636
0.000839074
-0.00599781
0.00515873
-0.00868198
0.00548416
0.00319709
0.00170547
0.00742381
-0.00912926
-0.00129072
0.00919096
-0.00790018
-0.0092811
0.00394358
0.00533752
-0.00130086
0.00883238
-0.00753154
-0.0119933
0.0116883
0.000305057
-0.0122433
0.00778643
0.0044562
0.00263576
-0.00405678
0.00142074
-0.0118198
0.012049
-0.000229258
-0.00407821
0.00417015
-9.19284e-05
0.00651908
-0.00780979
-0.0050699
-7.1889e-05
0.00514173
-0.0034307
-0.00163941
-0.00712124
0.00381435
0.00330685
-0.000729158
-0.00639212
0.00592139
0.00272148
-0.00864287
-0.00678193
0.00123271
0.00554922
-0.00158614
-0.00519579
-0.00101427
0.00619323
-0.00517896
0.00927903
-0.00947335
0.000194323
0.00805444
0.0012246
-0.00270118
-0.0031779
0.00587897
-0.00434563
0.00518471
2.17994e-06
-0.00512641
0.00512423
0.00197106
0.00436536
-0.00633642
-0.00673437
0.0067976
-6.32324e-05
-0.0030505
-0.00368387
0.00596359
-0.00754973
-0.0102123
0.00190145
0.00831086
-0.00341899
-0.00679331
0.000411083
-0.00484332
0.00443224
0.00438715
0.000320937
-0.00470809
0.00290163
0.00148553
-0.00379022
0.0070372
-0.00322305
0.00523098
-0.00200758
-0.00388365
-0.00352364
0.0074072
0.00311049
-0.00699407
0.00440402
-0.0063247
0.00192091
0.0241482
-0.0724577
0.0483085
0.0243372
-0.00676342
-0.017574
0.00154372
-0.00737859
0.00583487
0.00578313
0.0021104
-0.00789359
0.00649412
-0.00346774
-0.00302635
-0.00622464
-0.00312842
0.00935304
-0.0121332
0.00755438
0.00457892
0.0051508
-0.0107191
0.00556828
-0.0015241
0.000992988
0.000530245
0.0136605
-0.00989666
-0.00376403
-0.000197767
0.0138581
0.000908974
0.00776651
-0.00867548
0.00320858
0.00733067
-0.0105393
-0.00652202
-0.00231663
0.00883866
0.00429022
-0.0094323
0.0051422
0.00755351
-0.00727888
-0.000274637
0.00262661
-0.00895606
0.00632945
0.0101376
-0.0221421
0.0120048
0.00466612
-0.0079682
0.00330208
-0.00575137
-0.00125499
0.00700636
0.0101322
-0.00550027
-0.0046319
-0.00601847
-0.00108538
0.00710393
-0.00561425
-4.34061e-05
0.00565775
0.0120088
-0.330035
0.318064
0.197753
-0.185735
0.00655677
-0.0021889
-0.00436796
-0.00183401
-0.00628743
0.00812148
0.00112888
-0.00330368
0.0021748
-0.00854394
0.00480538
0.00373855
0.00226186
0.00361972
-0.00588161
-0.00883451
-0.00315869
-0.00355024
-0.0052842
0.0111167
0.0132202
0.00853843
-0.00853872
-0.00294849
-0.00341136
0.00635993
-0.0081478
-0.00438737
0.0125351
0.00571042
-0.00144386
-0.00426656
0.00739273
-0.00808896
0.000696268
0.00682089
-0.00427696
0.00819412
-0.00391717
-0.00818018
0.00153567
0.00664451
-0.00315727
-0.00502291
-0.00700827
0.00824388
-0.00824389
-0.00277728
-0.00295414
0.00573141
-0.00754786
0.0067863
0.000761547
-0.00164786
-0.0059
-0.00609208
0.00975825
-0.00366595
-0.00514397
0.00390012
0.00124385
0.00242945
-0.00757342
-0.00695305
-0.00531618
0.0122698
-0.0168609
0.00832307
0.00853848
-0.00872453
0.00884914
-0.00012462
-0.00523817
-0.00348635
-0.000102987
0.0141735
-0.0140698
-0.0188501
0.0158192
0.00303043
0.00478493
-0.000139787
0.00729637
-9.75781e-05
-0.0071988
0.00807508
0.00576269
-0.0138377
0.0303964
-0.0422098
0.011814
-0.00860076
0.00961284
-0.00101206
-0.00740676
-0.014371
0.02178
0.00756187
-0.0041976
-0.00336428
0.000579399
0.00698247
-0.00267083
-0.00336774
0.00603862
-0.00725851
0.00988513
-0.0120095
0.00548746
-0.00122312
0.0046928
-0.00346962
-0.00117188
0.00245441
-0.00128242
0.00234873
-0.00731365
0.00496494
-0.00918969
0.00229003
0.00689968
0.0111603
-0.00333868
-0.00782163
0.0046597
0.00650063
-0.00656565
0.00444316
0.0021226
-0.00249356
0.00560406
-0.00889707
-5.89889e-05
-0.00568849
0.0032513
0.00426252
-0.00751383
0.00434987
0.00380144
-0.00815133
-0.00384234
0.00931261
-0.00547027
0.00733311
-0.00898097
-0.007718
0.00638844
0.00132956
-0.00571462
0.000991493
0.00734498
-0.00197753
-0.00536745
0.0102188
-0.0109653
0.000746496
-0.00143227
0.00115565
0.000277109
0.00561886
0.00304261
-0.00866145
-0.00520684
0.0138366
-0.00862966
-0.00469289
0.00126192
-0.00205716
-0.00886845
-0.00666662
0.0155351
0.0130854
-0.0219538
0.0385643
0.0119459
-0.00953403
0.00768502
0.00184901
0.00726677
-0.000137706
-0.00712906
0.00730464
0.00461702
-0.0119217
0.0148396
-0.0588532
0.0440122
0.0429558
-0.0281172
-0.00542162
0.0063917
-0.000970084
-0.024842
-0.00609435
0.0309362
0.0610474
-0.00329393
-0.0577594
-0.00705621
0.00770347
-0.000647252
0.0329793
-0.0193479
-0.0136322
0.0311592
0.00181973
-0.00327815
0.00651943
-0.00324128
0.0018439
0.0137414
-0.0155839
-0.00301856
0.000605288
0.00241333
-0.000646701
0.00662372
-0.00597689
-0.00877882
0.0122176
-0.0034388
0.0135535
-0.00957349
-0.00397997
-0.0041812
-0.00313124
0.0073124
0.000805221
-0.00551821
0.0047129
0.00475656
0.0051522
-0.00990874
0.00691308
-0.00110396
-0.00580912
0.0117736
-0.00744104
-0.00433256
0.00981613
0.00195746
0.00463953
0.0039711
-0.00861063
0.0078785
-0.00195711
-0.00191553
-0.00557147
0.00748699
0.00301028
-0.00742558
0.0044153
0.0108497
-0.00806542
0.00999961
-0.00802892
-0.00197062
-0.00534879
0.000625935
0.00982745
-0.00771051
-0.00211744
-0.00241613
-0.0146171
0.00690668
-0.0024758
-0.00474728
0.00722308
0.00839725
-0.0102313
-0.00573711
0.0030663
0.00307772
-0.00779027
0.00471257
0.00593092
0.008532
-0.00386588
-0.00979752
0.00327183
0.00652577
0.00720635
-0.00211763
-0.00508863
-0.00546402
0.000774295
0.00469
0.00163145
0.00445034
-0.00608178
0.00824552
-0.00661407
0.000231342
-0.00772752
0.00749618
-0.0779531
-0.193495
0.271449
-0.0371372
0.0321516
0.00498549
0.00732824
-0.000592566
-0.00673565
-0.00220579
-0.00632577
0.00161319
0.00471258
-0.00658731
-0.0058209
0.0124083
-0.000166364
-0.0079047
0.00807102
-0.0055348
0.0097342
-0.00419941
-1.19351e-05
0.00728682
-0.00727492
0.00497155
-0.0020094
-0.00296216
-0.000470295
0.00544185
-0.00250389
-0.00157431
0.00128408
0.00705863
-0.0083427
0.00242672
0.00416688
-0.00659361
0.00103651
-0.00764689
0.0066104
0.00740772
0.00429727
-0.0117051
-0.000589325
-0.00699832
0.00758764
-0.00625472
0.0056654
0.00234499
-0.00751927
0.00517417
-0.00763886
0.0077105
-7.16941e-05
-0.00324216
-0.00439674
0.0069377
0.00393152
-0.0108692
0.415742
-0.223779
-0.00619869
0.0106049
-0.00440623
-0.00664082
0.00393959
-0.00437895
0.008207
-0.0043824
-0.00382458
0.00510792
0.000150366
-0.00525829
0.00687473
-0.00473919
-0.00213554
-0.00224455
-0.00552566
0.00777022
-0.001872
-0.00626514
0.00813711
0.00327476
-0.00833668
0.00506195
-0.00762957
-0.00633965
0.0139693
-0.000355762
0.00645482
-0.00609906
0.00120183
0.00510425
-0.00630608
-0.000767928
0.00807258
-0.010585
0.00332643
-0.00325429
-0.00868305
-0.00787912
0.00591317
0.00196595
-0.00504874
-0.00283039
0.00681543
-0.00754243
0.000727001
0.00256067
0.00425476
-0.00623763
0.00903465
-0.00279702
-0.00765464
0.001417
-0.00508513
-0.00347293
0.00855806
0.00486059
-0.0138813
0.00902152
0.00958914
-0.00617561
-0.00341341
0.00566504
0.00392419
-0.0363937
0.0048641
0.00674664
0.00289469
-0.00964132
-0.00967517
0.00643043
0.00324468
0.00549155
0.00245172
-0.00794327
0.0100865
-0.000853175
-0.00923339
0.00944815
-0.00929532
-0.000152922
-0.0040718
-0.00378894
0.00786073
0.000717946
-0.0100399
0.00932192
0.00132146
-0.0102565
0.00893499
0.00868697
-0.00723381
-0.00145314
0.00456524
0.00443953
-0.00900476
-0.00231267
-0.00746611
0.00977878
-0.00447714
-0.00472223
0.00919937
0.00157862
0.00544799
-0.00702661
0.00753435
-0.00894581
0.0014114
0.0018881
-0.00837365
0.00648555
-0.0237664
0.0181093
0.00565713
0.00709859
-0.0308649
0.00616868
-0.00612684
-4.18785e-05
-0.00933305
0.002715
0.00661807
0.00367622
0.00365528
-0.0073315
0.00152497
0.00350079
-0.00502553
0.056638
0.0250039
-0.0816417
-0.028373
0.00931279
-0.00859484
0.00432188
0.00234155
-0.00666344
-0.00062693
0.00635255
-0.00572562
-0.0195313
0.014088
0.0054434
-0.0112882
-0.00824308
0.00316887
-0.00761613
0.00444726
-0.0385538
-0.00100018
0.00717278
-0.00771704
0.000544246
0.00417661
0.00556753
-0.00974416
0.0069245
-0.00353523
-0.00338927
0.0169729
-0.0096798
0.00969496
0.00511194
-0.0148069
0.00120218
-0.00949561
0.00829344
0.00177858
-0.0104535
0.00867487
3.70435e-05
-0.0100279
0.00999092
0.00491348
-0.0083223
0.00340883
-0.00968154
0.00356907
0.00611247
-0.00287487
-0.00539233
0.00826719
0.00151024
0.00660127
-0.0081115
0.00672756
-0.00745677
0.00330259
0.00432052
-0.00762311
-0.00833538
0.0035734
0.00476198
-0.00116403
-0.00717136
-0.00726283
0.00865719
-0.00139435
0.00857885
-0.000275852
-0.008303
-0.00338637
-0.00222837
0.00561479
0.000353635
0.00484646
-0.00520037
-0.000606625
0.00465441
-0.00404794
-0.000269156
-0.0102172
0.0104864
0.0131483
-0.0177883
0.00463621
-0.00918435
0.00289697
-0.00669873
-0.00248557
-0.00188351
-0.00179639
0.00367983
0.0010917
-0.00319589
0.00210388
-0.00797275
-0.00162256
0.00959532
-0.00668867
-0.00888538
0.00361351
-0.00730066
0.00368714
-0.00251047
0.00558214
-0.015805
0.00225405
0.0135508
0.00761035
-0.00179595
-0.00581441
-0.00493167
0.00661543
-0.00168376
0.00899539
0.00045273
0.00888374
0.000111604
0.0105392
0.00648664
-0.00620987
-0.00027669
0.000872403
-0.00168144
0.040058
0.0109702
-0.00396817
-0.00700206
0.00748438
-0.00826396
0.000779565
0.00118952
0.00629485
0.00890154
-0.00913531
0.000233774
0.00479806
0.00410348
-0.009278
-0.00957223
-0.00947578
0.00230918
-0.0118815
0.00991728
-0.0040684
-0.00584889
-0.00836916
0.00600763
0.00236153
0.00118
0.00130907
-0.0024893
-0.0106242
0.00154126
0.00908292
-0.00473846
-0.0040687
0.00880723
-0.0216414
-0.0188044
0.0404453
-0.00484125
0.0016334
0.00320784
-0.00184579
-0.00299547
0.0149066
-0.0116191
-0.00328699
0.00254484
0.0073268
-0.00987165
-0.00736368
0.00697085
0.00244656
-0.00830121
0.00585465
-0.00657364
0.0040302
0.00254345
-0.00449408
0.00641671
-0.0019226
-0.00495031
0.0166965
-0.0117459
-0.0253765
0.0204261
0.14342
-0.243868
-0.186614
0.0577949
-0.0308421
-0.026956
-0.0100284
0.00476328
0.00526511
-0.0105919
0.000563486
-0.0042256
-0.00513601
0.00936161
0.00500404
-0.00922964
-0.0135535
0.0203305
-0.00677696
0.0155843
0.0274967
-0.00716623
-0.0215515
-0.0241485
0.0456988
0.0117462
-0.0332979
-0.00188683
0.00779697
-0.000540365
0.00656613
-0.00602572
0.00453713
-0.00903802
0.00450045
0.00100969
-0.00839347
0.00738378
0.00981748
-0.00539699
-0.0044207
0.00555449
0.00426283
0.00501163
0.00519246
-0.0102041
-0.00552765
-0.0091684
0.0179155
-0.00874702
0.00612097
-0.00531579
-0.0022482
-0.0344144
-0.0111998
0.045611
0.0186436
-0.0467476
0.0281027
0.00476334
0.00645854
-0.0112219
-0.0031196
0.00788294
0.000318168
0.00614037
0.0034061
0.00511812
-0.00852422
-0.00338098
0.00899026
-0.00560929
0.00556747
0.00434975
-0.0034268
0.0101734
-0.00162991
-0.000838316
0.00246829
-0.00426332
0.00839597
-0.00413272
-0.00541808
0.00727083
-0.0018529
0.00554338
-0.00192372
0.00236547
0.0106705
-0.00142943
-0.00924104
0.00239677
0.00499955
-0.00739631
-0.00818086
0.00801447
-0.00570402
-0.00310313
0.00880713
0.00900993
-0.00428531
-0.00472461
0.00156889
-0.00668659
-0.00388445
0.010571
-0.00548441
0.00448378
-0.00836823
0.00352687
-0.00858042
0.00505355
-0.00511327
0.00864014
0.00762589
-0.00674657
-0.000879168
-0.00734075
0.00439399
0.00294682
0.0079953
0.000570923
-0.00856621
0.0019125
0.00417559
-0.0060881
0.00434195
0.00475499
0.00653193
-0.00750389
-0.00746856
0.00346417
0.00400439
0.0157453
0.0241301
-0.0398752
0.0372757
-0.0208551
-0.0164202
0.00148386
0.00586132
-0.00734518
-0.00446232
0.00594619
0.000670027
0.00519129
0.00978767
-0.00487419
0.00335987
0.00578639
-0.00914625
0.00123184
-0.00372543
0.00533381
-0.00298882
-0.00671429
-0.00880044
0.00707249
0.00172799
-0.00840431
0.00775768
0.00762628
-0.00286416
-0.00476219
0.00149442
0.0115912
0.011632
0.0054521
0.00613915
0.00676645
-0.0101854
-0.000770463
-0.00861998
0.0093905
0.0159849
0.00343688
-0.0194212
0.0061188
0.0052367
0.0106556
-0.00209589
-0.00559541
0.00769128
-0.00561948
0.00352359
0.00167644
-0.00519998
-0.0101262
-0.0289154
0.0390415
1.51504e-05
0.00774952
-0.00776467
0.0104228
-0.00861383
-0.00180894
-0.0140301
-0.000915068
0.0149451
-0.0449596
0.0197475
0.025212
0.0359256
-0.0274576
-0.00846797
0.0028793
0.00638526
-0.00926457
0.013558
-0.0202247
-0.00187618
0.00744367
0.00495166
-0.00682782
0.00670675
0.000736866
0.00428607
0.00423757
-0.00432787
0.00861394
-0.00277437
0.00701194
0.0090755
-0.0203637
-0.0084237
0.00424251
-0.00569392
0.00273748
0.00295645
0.00157285
0.02228
-0.0258885
0.00360835
-0.0108453
-0.00601428
0.00583958
0.00020628
0.00482531
0.00711936
0.00791567
-0.0054691
-0.00831072
0.00831458
-0.024928
-0.00266658
0.0275942
0.00503949
-0.00823021
0.00319072
0.00865299
-0.00302813
0.00633475
-0.00330648
-0.00042321
0.000423087
0.0204706
0.0168051
-0.00769953
0.00607483
0.00162469
0.0320571
-0.0036728
0.005982
0.00447285
-0.0104549
-0.00293972
0.00892172
0.000902527
0.00728644
-0.00818894
0.00806014
-0.00256858
0.00739202
-0.0092641
0.0356815
0.0192
-0.0548822
-0.00472224
-0.00490533
0.00962759
-0.0120221
-0.00200794
-0.00115976
-0.0108624
0.0130984
-0.0151063
-0.00542628
-0.000169113
0.0246682
0.00359237
-0.0282603
0.00842003
0.0162484
-0.0252869
0.0288796
-0.0024786
0.00800561
-0.005527
0.00300785
0.0055156
-0.00852343
-0.00409387
0.00409573
-0.00528083
0.00809414
-0.00281333
-0.00739968
-0.0351156
0.0174629
0.0176526
-0.0128355
-0.00791357
0.00211967
-0.00211835
-0.00425903
0.00426111
-0.00240619
0.012177
-0.00977084
-0.000215451
-0.00692774
0.00714328
-0.00690417
0.00570237
0.00120185
0.00203665
-0.00621392
0.00417723
0.00687803
-0.00243907
-0.00443897
0.00891468
-0.0100193
0.00924889
-0.00654796
0.00568663
0.000861345
-0.00435569
-0.0012638
0.00818394
-0.00819589
0.00291943
-0.00291727
0.00360272
0.00427579
0.00517557
-0.0105931
0.00309892
0.00749424
-0.0132486
0.000205597
0.0130431
-0.00033898
-0.010229
0.010568
-0.00693803
-0.00727041
0.0142081
0.00590307
-0.00289279
0.00170172
-0.00590049
0.00419876
0.0259703
-0.00210131
-0.0238691
0.0221059
0.00539065
-0.0034543
0.0052583
-0.00180399
-0.0106294
0.00404221
-0.012595
0.00196562
0.0121705
-0.00812827
-0.0098313
0.000335685
-0.00621194
-0.00361936
-0.000605104
0.00651827
0.0146774
0.0103662
-0.0250436
0.00411765
0.00612748
-0.0102451
0.00547921
-0.0125929
0.00711396
0.00109837
-0.0010946
-0.0136029
0.00553336
0.0080701
0.00389674
-0.00808376
0.00418701
0.00268607
-0.00268481
0.00812197
-0.00557713
-0.0123884
0.00929188
0.00309655
0.00474191
-0.00866966
0.00392776
-0.00376709
0.00369495
0.00411875
-0.00775844
0.0036397
0.00679396
-0.00706283
0.00638489
0.000677926
0.00719237
-0.000333739
-0.00685866
-0.0179821
0.0219384
-0.00395614
0.0178779
0.000980362
-0.0188581
0.00782934
0.00385905
0.00786642
0.00933831
-0.00347093
-0.00866228
0.00377317
-0.00724408
0.000235702
-0.00889797
-0.00485149
0.00554873
-0.000697241
0.00518124
0.000984006
-0.00616525
-0.00682361
0.00682625
0.00580108
0.00567805
-0.011479
0.00181938
-0.00181845
0.00625382
-0.0105391
-0.00319461
0.00262746
0.000567044
-0.264783
0.0611824
0.203605
-0.168023
0.243809
-0.0757832
-0.432808
0.304994
0.0100446
-0.00141825
-0.00862637
-0.00789463
0.00222955
0.00566509
-0.00315271
-0.465237
0.319286
0.145961
-0.151047
-0.314186
-0.00119238
0.0110085
-0.000454386
-0.0127942
0.0121025
-0.00702667
-0.00507578
0.0116481
-0.00626306
0.00760463
-0.00134163
-0.00417973
-0.00712328
0.011303
-0.0067487
0.00483317
-0.00647781
-0.00201778
0.00849558
0.020939
0.0021368
0.00173453
-0.0197168
-0.0120398
0.0312963
-0.0192572
0.0191193
0.00714749
-0.00253284
0.00253426
0.00116511
0.00592349
-0.00708858
-0.00569035
-0.00182816
0.00751852
-0.00452526
0.00409532
0.0017297
0.0051948
0.00691094
-0.0139926
0.0169278
-0.00293534
0.00143352
0.0169976
-0.0184311
0.0214828
-0.0200492
0.000812074
-0.00562432
0.00481224
-0.0229197
-0.00276933
0.0256882
-0.0133563
-0.00956354
0.0157102
-0.01848
0.00264741
0.00453626
-0.00718363
0.00709059
0.00688501
-0.00880902
0.00381272
0.00499618
-0.00463478
-0.0041743
-0.00400269
0.0556167
-0.0516152
-0.00219754
-0.0227308
-0.00508235
-0.0018896
0.00160199
-0.00568674
0.00408469
0.000216873
-0.0072742
0.00705732
-0.00692769
0.00714456
0.00340653
0.0128587
-0.0162653
-0.0134572
-0.00369031
0.0171476
-0.0100506
-0.00536736
0.00770702
-0.00233966
-0.00550506
0.00761381
-0.000421447
-0.0254722
0.00974508
0.0157263
-0.0196201
-0.00585215
0.0307421
-0.0209974
0.019515
-0.0188141
-0.00615231
-8.80587e-05
8.9082e-05
0.00503073
0.000910743
-0.00104161
0.0060723
-0.00487572
-0.0041624
-0.00541615
0.00118065
-0.00117982