/*--------------------------------*- C++ -*----------------------------------*\
  =========                 |
  \\      /  F ield         | OpenFOAM: The Open Source CFD Toolbox
   \\    /   O peration     | Website:  https://openfoam.org
    \\  /    A nd           | Version:  6
     \\/     M anipulation  |
\*---------------------------------------------------------------------------*/
FoamFile
{
    version     2.0;
    format      ascii;
    class       volVectorField;
    location    "100";
    object      U;
}
// * * * * * * * * * * * * * * * * * * * * * * * * * * * * * * * * * * * * * //

dimensions      [0 1 -1 0 0 0 0];

internalField   nonuniform List<vector> 
29884
(
(7.53479 0.0573933 -1.03081e-16)
(5.36441 0.0251257 8.64054e-17)
(5.41091 -0.115486 5.83959e-17)
(7.10843 -0.0770447 4.73435e-18)
(7.21866 0.102417 -3.40594e-17)
(5.74488 0.155688 8.51722e-17)
(7.96701 -0.128447 -3.41938e-19)
(7.44658 -5.96839e-05 4.34517e-17)
(4.76892 0.12638 3.31892e-17)
(7.13545 0.0174999 1.01626e-16)
(7.44286 0.008057 -3.8621e-17)
(7.20154 0.19533 3.61552e-17)
(8.07994 -0.132943 -1.95628e-17)
(7.21674 -0.115366 2.46494e-17)
(7.23772 0.101303 -3.43271e-17)
(4.45873 -0.0574713 8.90025e-17)
(8.29591 0.0505279 -3.56664e-17)
(6.77471 0.196463 -6.01795e-17)
(6.62629 0.167516 0)
(4.25077 -0.00363166 -1.65066e-16)
(7.91013 0.213711 1.46275e-16)
(4.94046 -0.0376684 0)
(8.00599 -0.0631911 -6.57333e-18)
(7.11441 -0.0216562 0)
(7.07035 -0.0135636 0)
(7.59344 0.0398576 -3.71912e-17)
(7.90111 -0.0161138 0)
(8.11076 -0.0302154 7.94338e-17)
(5.15399 -0.0253992 1.119e-16)
(5.19996 0.114252 6.07387e-18)
(5.40721 -0.00935099 -2.47053e-17)
(4.82654 0.0873928 5.13309e-16)
(8.0859 0.0477886 -2.34845e-17)
(7.45062 -0.0337152 0)
(7.27885 -0.0620855 -8.9506e-17)
(7.50952 -0.107284 6.78852e-17)
(5.05136 -0.0357099 7.03779e-17)
(7.57209 0.122708 9.93624e-18)
(5.37631 0.143649 -8.27216e-17)
(7.81772 -0.151932 -3.42923e-17)
(5.06084 -0.0511875 0)
(7.06893 0.0678878 2.37607e-17)
(7.61894 0.187082 -4.93619e-17)
(7.24934 0.278918 -3.24088e-16)
(6.96303 -0.0189856 1.07027e-17)
(7.61295 -0.155897 -1.82198e-17)
(8.07301 -0.159395 0)
(7.71807 -0.117789 -6.26289e-18)
(4.81015 0.0346963 -3.18409e-17)
(8.36535 0.0876854 0)
(7.37772 0.123907 0)
(7.19008 -0.075689 1.47359e-17)
(4.74494 -0.152698 3.98425e-17)
(8.47614 0.0237908 1.06677e-16)
(7.25372 -0.0658739 -8.54055e-17)
(7.13719 -0.139706 6.11403e-17)
(4.47047 -0.0168276 2.8393e-18)
(8.0927 -0.0441593 0)
(6.76205 0.056628 6.21163e-17)
(6.98927 -0.133547 -9.49992e-17)
(7.86218 0.163279 -1.89195e-17)
(7.91099 -0.00624352 2.52386e-17)
(4.7136 -0.100297 0)
(8.13348 0.0486062 -6.65605e-17)
(7.12047 -0.0701301 3.25047e-17)
(7.00426 0.0781164 -6.60909e-18)
(7.50881 -0.0441832 8.25221e-18)
(7.8739 -0.117251 5.38384e-17)
(7.46286 -0.0953011 -3.49847e-17)
(7.35617 0.0616608 5.83538e-17)
(7.24754 0.195534 3.10977e-17)
(7.6731 0.0648331 -6.07806e-18)
(7.51797 0.101629 0)
(5.63207 -0.139043 0)
(7.35722 -0.106077 -4.24694e-17)
(7.0206 -0.0896739 -2.34465e-17)
(8.24443 0.110418 0)
(7.98178 -0.117739 0)
(8.19195 -0.113627 0)
(5.13205 0.0330483 0)
(7.71197 -0.0810113 4.86859e-17)
(5.21819 -0.0513191 0)
(7.09771 -0.131419 0)
(7.02273 0.0832321 3.03672e-17)
(6.39551 -0.0468284 -2.62779e-17)
(4.65243 -0.534341 -8.55589e-18)
(7.35362 -0.00477934 0)
(7.65618 -0.0358322 0)
(7.33284 -0.112403 3.86191e-18)
(3.85522 -0.672925 1.71804e-17)
(7.21273 -0.204602 0)
(7.92905 -0.181089 -1.64732e-17)
(4.70363 -0.172486 -4.85892e-17)
(3.6802 -0.453739 0)
(7.13785 0.111197 -4.51777e-17)
(-0.55522 0.180194 0)
(6.99616 0.013188 -8.9371e-17)
(7.00733 0.0113917 1.18965e-16)
(7.46977 0.0491224 -2.78074e-17)
(3.76479 -0.341225 0)
(7.01428 0.0318266 5.64539e-17)
(6.9461 0.0658485 1.23704e-16)
(7.70388 0.0139458 0)
(7.78669 0.0173576 -4.46455e-18)
(7.42666 -0.122064 -2.42735e-18)
(8.19378 -0.0868099 0)
(4.01737 -0.537379 1.3706e-17)
(4.09905 0.0070727 -3.25017e-17)
(7.14505 0.115449 -4.95526e-17)
(7.00342 -0.316118 0)
(7.43706 -0.208202 0)
(-0.856162 0.106142 5.94125e-17)
(7.31787 -0.0828524 2.13396e-18)
(7.14271 -0.109388 0)
(7.38138 -0.12204 -3.66556e-18)
(6.983 0.0968574 -3.05138e-17)
(7.17331 0.103156 0)
(7.19132 -0.248434 0)
(6.80965 -0.0900188 0)
(6.7021 -0.309125 3.729e-17)
(7.00353 0.00556288 0)
(6.89953 -0.292159 2.43145e-17)
(7.36037 -0.158272 3.84373e-17)
(6.79909 0.174268 0)
(6.99478 -0.0329757 1.50621e-17)
(7.09797 -0.193193 -6.0789e-17)
(7.85201 -0.270664 3.66084e-18)
(8.00094 -0.0398964 1.44269e-17)
(6.91858 -0.221828 -3.52348e-18)
(7.00535 0.120527 0)
(6.79337 0.143836 1.34417e-17)
(6.96897 0.101092 -1.51104e-17)
(7.04822 -0.0924026 3.82729e-17)
(8.21484 -0.0916498 0)
(6.81148 -0.0873266 0)
(7.54691 -0.0929708 0)
(7.65583 0.231763 0)
(7.41047 -0.118551 3.51966e-18)
(7.57071 -0.147966 -1.2772e-17)
(7.57365 -0.135338 2.64986e-17)
(7.4546 -0.121607 0)
(7.32038 -0.0258168 2.40205e-17)
(7.7363 0.133044 -1.76433e-17)
(7.80294 -0.177363 -8.44719e-18)
(8.04331 -0.144773 -9.33332e-18)
(8.0654 -0.167947 9.22956e-19)
(7.82383 -0.13347 1.72807e-17)
(7.50693 0.163133 5.71913e-17)
(7.83044 0.110068 -4.85205e-17)
(7.76575 0.198218 5.31004e-17)
(7.66032 0.114088 0)
(4.49024 -0.180736 -2.22943e-17)
(4.23847 -0.025147 0)
(7.94804 -0.145644 -1.1409e-17)
(7.87314 -0.221642 1.94044e-17)
(7.93344 -0.164538 0)
(7.9743 -0.188004 -5.91169e-18)
(7.85486 -0.209552 0)
(7.91503 -0.119548 0)
(7.94732 -0.179271 0)
(7.9034 -0.151127 -2.08994e-17)
(7.07682 0.0109145 3.35436e-17)
(6.99713 -0.0603541 -3.40188e-17)
(7.58377 0.180255 -8.6712e-17)
(-1.79985 0.109866 -6.39371e-17)
(-1.52636 0.172929 -5.4615e-20)
(4.94649 -0.073701 0)
(4.71282 -0.00783096 0)
(7.00836 0.0383831 -5.3712e-17)
(7.90995 0.187609 4.48899e-17)
(7.33737 0.0444776 -1.28543e-16)
(6.98229 0.0951953 0)
(6.97525 0.0680241 0)
(6.73541 -0.0478533 -1.80735e-17)
(6.95587 -0.0571722 0)
(7.06442 -0.180992 7.14902e-18)
(6.87302 -0.256889 -6.40318e-17)
(5.14407 -0.0330109 3.83548e-17)
(7.07764 0.131578 -4.53743e-17)
(7.29028 -0.194564 -6.53437e-18)
(7.03124 -0.273248 -1.43676e-17)
(6.39488 -0.371699 -2.88564e-18)
(6.38499 -0.285746 3.69665e-17)
(6.49395 -0.218631 7.38912e-18)
(7.16144 -0.109187 7.2123e-18)
(7.33974 -0.140544 0)
(7.06545 -0.0242955 -9.14312e-17)
(6.98633 -0.00304651 4.67465e-17)
(7.33302 -0.237841 -3.72632e-18)
(7.00778 0.0891296 3.07164e-17)
(7.40935 -0.177322 0)
(6.61082 -0.0901158 2.43016e-17)
(6.4836 -0.144512 -6.79438e-18)
(7.25212 0.148872 -7.99268e-19)
(7.35429 0.118371 3.96162e-19)
(7.05294 0.139933 0)
(6.8598 0.162867 0)
(7.37368 0.0511949 4.18098e-17)
(7.61538 -0.0200457 -1.74239e-17)
(7.468 -0.130939 0)
(6.80141 0.0240815 0)
(7.62447 -0.0442958 0)
(7.53443 0.0551659 3.83873e-17)
(7.17119 -0.0152361 -4.11224e-17)
(7.37496 0.0649051 -1.09901e-16)
(6.6316 -0.293162 0)
(7.49074 -0.0851786 0)
(7.24446 -0.119126 0)
(7.36351 -0.047196 0)
(7.92802 -0.129231 0)
(7.75322 -0.12772 0)
(7.93928 0.0617806 0)
(8.14498 -0.0842711 0)
(4.75441 -0.0796447 0)
(7.05085 -0.0839393 0)
(5.01025 -0.0230289 -1.40759e-19)
(5.87869 2.70327 -1.01016e-18)
(4.02023 -0.073118 6.8303e-19)
(6.6654 2.73926 0)
(3.45029 -1.638 2.85954e-20)
(3.46965 -1.64935 7.00907e-18)
(5.99754 -1.20062 3.68501e-18)
(6.80062 0.29121 0)
(6.68733 2.35312 0)
(4.27717 -0.844514 -2.0116e-17)
(3.49665 -1.84676 3.24052e-20)
(3.9992 -0.614969 1.18214e-18)
(3.65477 -0.225636 0)
(2.18662 -4.04701 7.92041e-18)
(7.25475 -1.51989 0)
(5.30777 -3.85407 -1.27826e-19)
(3.81127 -0.573818 1.2843e-18)
(4.58439 -0.403978 -7.44325e-21)
(3.93288 -1.11695 -2.06492e-18)
(4.12475 -1.14838 -1.80704e-18)
(4.63283 -0.270418 2.41135e-19)
(4.55403 -0.223632 -2.99793e-19)
(6.74284 0.210771 -8.76278e-17)
(5.3437 -0.871387 0)
(1.60276 -1.01197 -6.22781e-18)
(2.16716 -1.03618 0)
(-0.134225 0.177948 0)
(4.78212 0.0049957 -6.13615e-19)
(3.10901 -1.05732 4.39107e-18)
(2.6006 -1.05906 -3.43242e-18)
(6.32107 1.90093 0)
(3.92312 -1.16079 1.33143e-18)
(3.88174 -0.366069 0)
(5.11771 -1.16731 1.20233e-18)
(4.94202 -1.1136 -5.37624e-18)
(3.42513 -1.1165 -4.1932e-18)
(5.40537 2.74818 1.31251e-19)
(6.17772 2.41489 2.57386e-18)
(6.12239 2.5368 -3.3075e-18)
(3.54103 -1.06949 0)
(3.49014 -1.4303 3.13814e-20)
(3.4002 -1.46201 -1.11014e-17)
(3.4376 -1.41916 2.40775e-20)
(5.42199 -1.22481 -2.44904e-18)
(5.93787 -1.23342 2.27441e-18)
(6.66086 -1.97813 0)
(5.81282 2.59251 4.12777e-18)
(2.69866 -1.0797 -1.76231e-18)
(-1.51634 -0.712156 -4.06603e-17)
(5.33018 2.68522 0)
(3.54579 -0.938946 0)
(5.06731 -1.21948 8.43472e-18)
(6.42417 2.04816 3.01876e-18)
(6.48591 2.10941 7.12685e-19)
(3.52981 -0.864782 0)
(5.87359 2.61684 -1.86356e-19)
(5.86141 2.69952 2.16137e-19)
(3.37093 -1.27215 6.01079e-18)
(3.40386 -1.44462 2.09917e-19)
(3.24853 -1.57214 1.65618e-18)
(4.02836 -0.9921 4.07661e-17)
(3.84236 -0.901928 0)
(3.59117 -0.351773 0)
(3.58167 -0.453938 4.22645e-19)
(2.40933 -1.07011 2.5902e-18)
(5.12578 -0.331004 0)
(4.3347 -0.646889 -3.03837e-19)
(6.90563 -0.393653 1.90669e-17)
(5.8863 2.71985 0)
(6.60591 0.167034 5.67014e-17)
(6.16148 2.25077 0)
(6.21457 2.32257 0)
(4.27367 -1.11663 0)
(-0.271875 0.272406 1.80113e-16)
(6.87866 0.286942 -9.05668e-17)
(3.784 -0.0405896 -7.34786e-18)
(4.43017 -0.473918 1.06217e-18)
(4.53761 -0.423977 -4.92013e-19)
(2.5397 -1.05384 -1.38732e-18)
(4.77434 -1.09926 -6.17405e-19)
(4.71234 -1.09794 -1.88486e-18)
(5.95505 2.50076 5.4043e-18)
(4.40166 -0.512129 -1.70928e-18)
(4.35042 -0.594147 6.37816e-19)
(2.95323 -1.06508 -2.03652e-18)
(6.60598 -3.20539 0)
(4.01105 -0.753515 0)
(4.11025 -0.743768 0)
(4.02203 -0.823278 0)
(4.05816 0.236121 -1.34477e-17)
(3.79395 -1.75039 8.32147e-18)
(4.18448 -1.31465 0)
(6.17822 0.0673315 -1.61998e-17)
(6.07025 2.51507 -8.43115e-19)
(6.03605 2.41354 -3.00952e-18)
(6.10031 2.43521 -3.34759e-18)
(5.99988 2.49684 -6.94564e-18)
(3.41142 -1.74005 -1.22118e-17)
(2.0776 -1.02168 9.90672e-19)
(2.28877 -1.03039 -1.9162e-18)
(4.80188 -1.09904 3.10747e-18)
(3.68732 -1.16722 0)
(4.17156 -0.545535 1.11955e-18)
(5.52455 -1.19998 -1.99731e-18)
(5.06729 -1.19818 -5.34061e-19)
(5.44895 -1.17065 1.53101e-18)
(3.97995 0.117519 0)
(4.02124 0.224131 -1.40156e-17)
(3.97682 0.14128 0)
(5.19397 -1.09204 -9.71593e-19)
(5.95186 2.56577 1.72748e-19)
(3.46715 -2.22347 -8.45332e-18)
(3.38574 -1.85929 1.09445e-17)
(3.40004 -1.85486 1.33528e-17)
(3.43954 -2.23849 3.64274e-18)
(6.22572 2.64363 1.5182e-18)
(6.31555 2.59871 -1.89715e-18)
(6.27562 2.57044 4.33772e-19)
(6.2883 2.65834 4.88841e-19)
(4.80524 0.0282405 1.20305e-18)
(4.83806 0.0608048 -6.93523e-19)
(6.82097 0.259657 -2.85088e-19)
(3.68847 -0.679708 -1.26773e-17)
(3.60682 -0.315795 -1.39085e-17)
(3.49985 -0.617994 0)
(4.09076 -1.12735 -3.63068e-18)
(7.53914 -0.312147 -3.21433e-17)
(3.43599 -1.21948 3.28687e-18)
(5.94242 -0.915043 -1.77091e-18)
(7.15009 -0.255033 7.71348e-18)
(3.72736 -0.158795 0)
(3.66348 -0.196944 1.39954e-17)
(3.73082 -0.113306 4.23262e-22)
(3.65204 -0.220254 -3.88109e-18)
(4.01447 -0.0508644 2.75558e-19)
(3.97713 -0.163761 0)
(3.94631 0.0348407 -5.70025e-18)
(5.90622 2.55561 0)
(5.93668 2.53808 0)
(5.91375 2.42266 4.31615e-19)
(3.76784 -0.215281 0)
(3.70945 -0.172153 2.60766e-17)
(3.88588 0.0622894 0)
(3.77395 -0.0666493 -2.91378e-17)
(3.83761 -0.0069281 0)
(4.0464 0.307758 -5.33242e-18)
(4.09553 0.163362 3.23668e-17)
(6.24079 0.119176 -5.94312e-17)
(6.6896 2.24061 -1.61066e-18)
(6.11375 2.58659 1.2262e-18)
(6.17879 2.63494 -2.37461e-18)
(6.75686 -0.569851 5.05852e-18)
(6.79385 -0.380745 0)
(-2.12009 -0.759739 0)
(3.85954 -0.0875034 -4.6493e-18)
(3.82742 -1.11482 0)
(3.45823 -1.08984 -1.19712e-17)
(7.13861 -0.266564 -1.79331e-17)
(7.16392 -0.247109 1.40009e-17)
(7.09468 -0.303142 0)
(5.76866 2.64388 2.3861e-18)
(5.71354 2.71835 1.3043e-18)
(4.49246 -1.14191 1.58482e-19)
(4.8908 -1.07945 0)
(5.08337 -1.07974 1.22373e-18)
(4.91531 -1.09113 1.36232e-18)
(5.318 0.122168 9.53173e-17)
(6.58396 -0.471092 -4.86826e-17)
(6.60649 -0.568698 0)
(6.66035 -0.398591 -2.23126e-17)
(2.94481 -1.11123 0)
(3.46796 -1.10375 4.31426e-18)
(3.36017 -1.1006 5.98055e-20)
(3.03905 -1.12621 -4.955e-18)
(4.39398 -0.346937 0)
(4.23341 -0.14214 -1.93022e-18)
(4.15848 -0.296662 -2.95028e-17)
(4.41531 -0.243262 0)
(3.75258 -1.15874 1.71824e-18)
(4.09969 -1.1592 -2.14015e-19)
(3.88975 -1.1691 -1.75569e-18)
(4.71267 -0.0602307 1.02984e-18)
(4.54649 -0.0469836 0)
(2.59749 -1.07989 0)
(2.38627 -1.05463 -7.23022e-18)
(4.25683 0.242378 -3.54693e-19)
(4.11377 0.427361 -7.2763e-18)
(4.42511 -0.555679 -6.10471e-19)
(4.20909 -0.593794 1.71307e-17)
(4.31124 -0.642449 -1.07986e-17)
(4.3747 -0.433155 9.72754e-18)
(2.90428 -2.01089 -1.34124e-18)
(6.69534 0.228575 1.05398e-17)
(6.68682 0.200351 0)
(6.89054 0.127612 0)
(6.82592 0.157486 6.16801e-18)
(5.00568 0.0157804 0)
(5.00319 0.00340569 0)
(3.94764 0.0813935 -1.73059e-17)
(4.03785 0.143571 8.31721e-20)
(3.99284 0.0962807 7.50336e-18)
(3.5326 -1.01908 0)
(6.64487 -1.87665 0)
(4.87679 0.014748 -4.30065e-20)
(5.09005 -0.00536562 -8.39896e-19)
(4.82634 0.0863691 -6.72319e-19)
(1.43602 -1.00832 0)
(3.45255 -0.903342 7.10803e-18)
(3.50907 -0.74956 1.49007e-17)
(3.4242 -0.844973 0)
(3.88732 -0.369988 0)
(4.07195 -0.286808 3.82336e-17)
(3.98121 -0.2216 -4.70396e-18)
(4.02891 -0.394359 -2.85589e-17)
(3.39896 -1.2892 1.2694e-17)
(3.45088 -1.12933 0)
(3.42992 -1.04928 -1.46456e-17)
(3.44458 -1.31674 0)
(7.61783 -0.277602 1.11074e-17)
(3.72382 -1.2686 0)
(3.58361 -1.06833 0)
(3.72822 -1.04285 0)
(3.54571 -1.28355 1.32836e-17)
(2.59348 -0.832156 0)
(3.01742 -0.906769 -4.64884e-18)
(3.84066 -0.876186 -3.58391e-19)
(3.98327 -0.840359 0)
(3.96206 -0.904306 3.32975e-19)
(3.86106 -0.81457 0)
(6.93982 0.0618435 3.48513e-19)
(6.90612 -0.00297061 0)
(6.54279 0.280523 3.38056e-17)
(4.18951 -1.16009 -1.99235e-19)
(3.71242 -1.10424 3.56475e-18)
(4.09859 -1.1496 2.50504e-18)
(3.77888 -1.13494 3.43706e-18)
(6.83865 2.19887 0)
(7.23472 0.426443 -1.93065e-17)
(4.50088 -1.60896 1.79617e-17)
(4.63351 -1.29382 -3.31854e-17)
(7.02276 -0.339944 1.56367e-17)
(7.12127 -0.268168 -1.0549e-18)
(7.04615 -0.309654 -1.02631e-17)
(6.82182 1.37928 3.77094e-18)
(5.09115 -0.279718 -2.74966e-17)
(0.950512 0.517739 0)
(6.18809 -0.503156 -2.08071e-17)
(6.30014 -0.477886 4.81648e-18)
(5.3418 2.73866 -1.04109e-18)
(3.52633 -1.06151 0)
(3.40375 -1.10969 -1.20211e-19)
(3.69027 -1.07665 2.38614e-18)
(3.24793 -1.0977 2.32092e-18)
(4.31463 -1.23005 0)
(4.56943 -0.934486 -5.71996e-18)
(4.38072 -0.952789 0)
(4.55088 -1.1785 3.6497e-17)
(6.90932 0.104018 0)
(6.91729 0.0693382 1.61903e-17)
(6.90677 0.0865136 0)
(7.00309 0.0667992 4.6813e-19)
(7.00012 0.0843356 -2.22771e-17)
(7.60033 -0.182855 0)
(7.26402 -0.227138 -4.10458e-18)
(7.40055 -0.223241 4.44455e-18)
(7.44192 -0.182907 0)
(6.66758 0.154949 0)
(6.78009 0.0709551 -6.98828e-17)
(6.74539 0.140206 5.09851e-18)
(6.68574 0.10853 4.32133e-17)
(2.97039 -1.08475 -4.90919e-18)
(2.64188 -1.06587 0)
(2.68801 -1.06675 0)
(2.90951 -1.08618 0)
(5.8854 2.60861 2.14513e-18)
(5.90933 2.67404 -1.20097e-18)
(5.957 2.57159 1.68104e-18)
(3.49505 -0.732763 0)
(3.47718 -0.910554 3.79468e-18)
(3.52672 -0.785185 -4.13643e-18)
(3.46434 -0.863082 -3.37111e-18)
(6.54461 0.178707 -9.20263e-18)
(6.42793 0.200077 3.28509e-18)
(6.49714 0.14878 9.21575e-17)
(-0.719466 0.156922 -2.41492e-17)
(0.00339811 0.518243 7.06494e-18)
(6.94565 0.13625 0)
(2.13255 0.726774 -2.79222e-19)
(5.4695 0.0125389 -1.14057e-16)
(6.99544 0.0188456 6.65248e-17)
(7.019 0.0696882 2.94598e-17)
(-0.0863002 0.115297 -2.29844e-17)
(0.19382 -0.0370989 1.97182e-17)
(7.01076 0.1078 8.16621e-17)
(7.00986 0.0774922 8.78217e-17)
(7.00853 0.0841381 -2.88879e-17)
(6.96035 0.188759 1.02137e-16)
(4.42405 -1.09118 6.57873e-18)
(7.00154 0.227216 0)
(5.70398 -0.103413 1.95216e-17)
(-0.592626 0.218038 7.3928e-20)
(-0.904989 0.294137 0)
(6.7887 0.21398 -6.27761e-17)
(3.64451 -0.848582 0)
(7.40758 0.014458 -2.37049e-17)
(6.99949 0.132807 5.86548e-17)
(6.8487 0.000780295 0)
(7.78863 -0.305094 0)
(7.3216 0.322628 0)
(7.30568 0.394719 2.23057e-17)
(-1.53873 -0.422184 1.46808e-17)
(7.73573 -0.201557 6.31436e-17)
(7.66401 -0.246272 0)
(7.12927 0.164785 4.70276e-18)
(6.85819 0.257819 0)
(3.4247 -0.962605 4.38687e-18)
(5.78707 -0.0832676 2.18051e-17)
(7.25284 -0.185602 -6.48247e-18)
(7.20839 -0.248295 2.49701e-18)
(7.221 -0.220866 1.64585e-19)
(7.63887 -0.169605 0)
(6.71431 -0.42427 -5.32119e-18)
(6.69815 -0.525181 7.32407e-18)
(8.11908 -0.165357 3.09915e-17)
(8.1852 -0.0955737 -3.14292e-17)
(8.10311 -0.0990216 6.89958e-17)
(6.80821 -0.116657 6.96734e-18)
(6.68121 -0.107004 4.39828e-18)
(6.97678 0.167295 3.08262e-17)
(6.97225 0.143165 3.05356e-17)
(7.00066 0.0217667 3.51563e-17)
(7.00325 0.0341773 7.41966e-17)
(6.49505 -0.37389 0)
(0.190338 0.1959 0)
(6.83844 -0.421161 0)
(6.81942 -0.523981 0)
(7.13275 -0.180971 -3.0593e-18)
(6.98319 0.239735 -3.2188e-17)
(5.92914 -0.093945 -1.63869e-17)
(7.00276 0.158878 -6.01353e-17)
(6.99247 0.196868 0)
(6.99222 0.179069 1.23986e-18)
(-1.60171 -0.0264961 0)
(6.93971 0.105622 -1.58861e-17)
(6.94899 0.0951647 1.56915e-17)
(4.67096 -1.18025 4.20185e-18)
(4.94992 -1.17116 0)
(4.74004 -1.14995 1.3625e-18)
(7.46017 -0.259857 -5.79607e-17)
(7.15277 -0.0438646 0)
(8.24867 -0.00914274 0)
(6.41927 -0.0686188 -2.99744e-18)
(6.35569 -0.0499733 -2.28864e-17)
(6.73331 -0.0531084 3.18994e-17)
(4.76773 -0.331611 5.96425e-17)
(4.96211 -0.337805 0)
(7.54048 -0.270515 -6.39896e-17)
(7.50167 -0.253523 5.25488e-17)
(8.05126 0.0287985 -2.29391e-17)
(8.22073 -0.0816271 0)
(6.09361 -0.206875 0)
(7.0805 0.00967641 0)
(7.16492 0.372514 4.58143e-18)
(7.14439 0.323085 0)
(8.07086 -0.106904 0)
(8.26213 -0.0718632 -1.78323e-17)
(-2.99912 -1.0465 0)
(7.19779 -0.271735 -1.85056e-18)
(7.28103 0.0249465 0)
(4.70357 -0.779202 -2.89026e-17)
(7.21672 0.113988 -2.71908e-18)
(7.22776 0.0735912 3.19152e-17)
(-1.22111 0.181807 -6.79832e-17)
(4.14353 0.242058 1.33526e-17)
(4.08968 0.335899 -8.15115e-18)
(6.80749 0.19331 5.54409e-17)
(6.99794 0.0487716 -3.19727e-17)
(6.99361 0.066017 -3.30621e-17)
(5.15514 -1.113 -1.09646e-17)
(6.35095 2.12341 -2.73639e-18)
(6.20959 -0.0341287 -3.33557e-17)
(6.09251 -0.0976041 0)
(3.49032 -1.05313 6.69366e-18)
(3.46514 -1.21733 -6.75343e-18)
(6.69631 0.0564034 -4.2818e-19)
(6.59687 -0.0236163 7.0885e-17)
(6.68987 -0.00682998 0)
(7.00001 0.0857197 6.80842e-17)
(7.00269 0.115966 1.77012e-18)
(-1.83544 -0.455385 0)
(6.96641 0.231067 -6.49541e-17)
(6.62921 0.212311 -5.55819e-17)
(6.59445 0.279404 -3.33954e-17)
(6.87191 0.21471 1.12841e-16)
(6.90835 0.216771 -8.11685e-17)
(6.92483 0.182859 -3.3957e-17)
(7.29236 0.0536367 -6.30363e-17)
(6.32666 -0.0547719 2.27539e-17)
(6.43651 0.0102396 -5.65539e-17)
(6.24018 -0.215694 -1.25672e-17)
(6.34631 -0.12898 -7.8403e-17)
(7.53055 -4.09942e-05 0)
(7.67952 0.0687192 -1.71605e-18)
(7.16252 -0.145493 -1.0645e-17)
(7.86048 -0.0112619 2.09989e-17)
(6.46953 2.2176 1.80237e-18)
(6.976 0.128047 7.71133e-18)
(7.07475 -0.318439 0)
(7.116 -0.268352 5.38281e-18)
(5.154 -0.958092 0)
(5.18047 -1.06124 2.09666e-17)
(7.45438 0.174813 -3.56205e-17)
(7.81218 0.147322 2.50883e-18)
(7.51338 0.107587 8.88504e-19)
(7.4259 0.128652 2.34675e-18)
(5.73977 -0.194 0)
(5.54711 -0.236105 0)
(3.5217 -1.4194 -1.74408e-17)
(3.42213 -1.44003 0)
(3.39881 -1.73287 -1.24763e-17)
(3.44238 -1.85473 -8.21082e-18)
(7.01615 0.0489775 -1.07832e-17)
(6.75218 0.17845 0)
(6.83012 0.169418 0)
(7.57219 0.0237754 0)
(7.90004 0.0289466 -6.03467e-17)
(4.32684 0.101248 -2.58051e-17)
(4.46472 0.0653653 2.20138e-17)
(8.315 0.0818578 -1.69398e-17)
(8.18079 0.142254 -1.55286e-16)
(8.04229 0.0389385 -5.46931e-17)
(7.1504 0.0701326 0)
(7.71325 0.228721 0)
(7.06217 0.0625575 0)
(7.44693 -0.0649319 0)
(7.0629 0.181293 -4.70797e-16)
(4.93641 0.0280972 5.29922e-16)
(7.4918 0.165146 8.67923e-17)
(5.53437 -1.20324 0)
(5.50644 -1.2307 0)
(6.9895 0.0213934 -3.17063e-17)
(6.95402 0.0419296 -7.213e-17)
(7.02242 0.0382636 2.38458e-17)
(6.93908 0.0546777 1.05172e-16)
(7.93414 -0.189281 5.26603e-17)
(5.11023 -0.136071 -4.19575e-17)
(5.26492 -0.190669 -5.38856e-17)
(5.42124 -0.10473 8.49364e-17)
(6.89969 0.112757 0)
(6.88877 0.134792 0)
(6.86089 0.166044 0)
(6.88096 0.158672 -3.34342e-17)
(6.84085 0.196066 0)
(7.00139 0.056894 5.12898e-17)
(7.35274 -0.0795866 5.27499e-17)
(7.06906 -0.13183 -4.48752e-17)
(7.59236 -0.251301 8.64219e-17)
(7.68227 -0.207235 -5.73356e-17)
(7.67485 -0.195013 -5.47318e-17)
(7.67804 -0.189603 0)
(7.51491 -0.194526 2.12791e-17)
(7.57278 -0.209805 -2.12186e-17)
(4.82513 -0.0777242 -1.64346e-18)
(6.97605 -0.023975 -1.27467e-17)
(7.88854 -0.204932 1.58293e-17)
(5.08927 -0.484135 0)
(5.25456 -0.43583 -2.38122e-17)
(5.4557 -0.4364 -4.06207e-17)
(-0.144084 0.148418 5.10129e-18)
(-0.0767077 0.138565 3.61575e-18)
(6.43826 0.0658033 2.82053e-17)
(6.3427 0.090684 0)
(3.69198 -0.639954 -2.90495e-18)
(3.58096 -0.779416 0)
(7.69004 -0.105088 4.98279e-18)
(7.84252 0.0251618 0)
(7.76852 0.103286 -3.5072e-19)
(4.25912 0.294963 1.49316e-18)
(4.10994 0.327478 1.45404e-20)
(5.41336 -2.9297 3.9458e-19)
(5.42144 -2.99992 -3.76155e-19)
(3.67611 -0.579683 0)
(5.17898 -0.0874062 -5.14052e-19)
(7.23679 -0.385008 -1.42969e-20)
(6.12006 -0.312404 0)
(6.36897 -0.278652 5.84413e-20)
(6.25821 -0.348717 -1.50969e-19)
(5.23888 0.148908 0)
(6.17056 -2.24447 -3.14229e-19)
(8.07978 0.790838 -3.76135e-19)
(7.23264 -0.218783 5.64755e-20)
(8.08067 -0.498416 6.98963e-19)
(5.03715 2.59859 6.3288e-19)
(4.9266 0.111094 2.79529e-18)
(1.93276 -1.06164 8.61469e-19)
(6.74392 -1.03961 0)
(3.61954 -0.476301 0)
(7.99862 0.750922 0)
(1.66553 -1.00019 0)
(1.78915 -1.01666 0)
(6.1121 0.969798 1.69359e-20)
(6.11813 1.09083 0)
(6.38923 -0.426905 1.14436e-19)
(6.63654 -0.213344 -2.00883e-20)
(6.62649 -0.196594 2.28542e-20)
(6.14045 -0.341914 9.42222e-20)
(7.06978 -1.37098 3.11181e-20)
(7.09391 -1.43173 1.16856e-20)
(3.47941 -1.19855 5.277e-19)
(6.27579 -0.350257 -8.76971e-21)
(6.30367 -0.356422 0)
(6.81055 -0.00526462 7.78295e-21)
(6.82398 -0.169234 -4.98607e-21)
(6.81775 -0.147456 -5.12836e-21)
(6.651 -0.183426 0)
(6.54228 -2.18141 0)
(6.54526 -2.13247 2.83343e-20)
(3.36713 -1.69815 9.80738e-19)
(6.30323 -0.259644 7.37442e-20)
(6.30551 -0.273824 -1.92817e-20)
(1.17084 -0.984527 0)
(1.90561 -2.21062 2.1389e-17)
(4.97577 -0.0299086 3.77876e-19)
(5.08001 -0.0475486 1.60853e-21)
(4.71995 0.405933 2.66932e-18)
(8.13764 -1.21214 -4.41888e-18)
(5.45608 2.52216 9.72875e-19)
(7.57348 0.255262 7.79778e-20)
(5.38558 -1.14492 -9.29518e-20)
(3.8224 -0.857703 -5.5637e-19)
(6.04855 1.40427 0)
(5.85677 1.92082 1.05794e-19)
(6.25543 -2.39087 1.62371e-19)
(1.1687 0.0276743 2.15064e-20)
(6.41573 -1.05442 -1.22921e-19)
(6.41375 -1.05832 3.68682e-19)
(6.29304 -1.70143 0)
(6.97661 -1.58358 0)
(6.85899 -1.80593 -5.74407e-21)
(5.43904 2.00532 3.22562e-19)
(6.75133 -0.292839 2.78724e-20)
(7.02972 -1.67688 2.00832e-21)
(6.13823 2.42146 0)
(5.72287 -0.378865 0)
(7.54247 -0.216843 0)
(6.18522 -2.34944 -9.50842e-20)
(2.5281 -2.49005 -2.62308e-20)
(2.68263 -2.35623 8.20657e-19)
(6.87278 -0.709995 0)
(6.88935 -0.787808 4.9987e-18)
(4.48899 -1.1627 -4.65715e-19)
(5.63771 1.937 1.92986e-19)
(3.01788 -1.27673 5.30554e-19)
(7.08268 -0.0700277 -7.55672e-20)
(3.52463 -1.2494 0)
(5.00776 2.60108 0)
(5.01851 2.62202 -1.81015e-18)
(5.44876 2.5755 0)
(5.18851 -3.36672 -4.0636e-18)
(4.70698 2.41884 0)
(5.49009 2.50174 -2.13067e-19)
(6.40075 -0.236246 0)
(5.13528 -0.0892519 2.54381e-19)
(5.0797 -0.0635355 1.24341e-19)
(6.25591 -0.4504 2.89552e-19)
(7.01944 -0.0774737 0)
(7.00331 -0.0598363 0)
(7.06163 -0.0513194 6.96842e-20)
(5.76786 -2.81553 7.85228e-18)
(6.50305 -0.143687 9.55649e-21)
(7.52983 -0.789662 0)
(7.5001 -0.734553 -2.57301e-20)
(3.52018 -2.83025 2.26489e-18)
(6.51634 -0.259738 -2.43915e-20)
(6.52019 -0.243291 0)
(4.23027 0.188957 4.1539e-18)
(4.29783 0.216098 0)
(7.65566 -0.540001 -2.02838e-19)
(7.63821 -0.505142 -1.30907e-19)
(4.95536 2.61893 -2.15764e-19)
(6.63653 -1.06414 1.53599e-18)
(3.82965 -0.634343 7.11281e-19)
(5.97727 1.36491 -4.41088e-20)
(5.60583 2.37857 7.27784e-19)
(6.14246 2.79582 1.8215e-18)
(7.28669 -1.03852 -6.2343e-21)
(3.47134 -6.019 4.2473e-18)
(6.5901 -0.209327 4.921e-20)
(6.59555 -0.228017 -2.59851e-20)
(5.49203 1.5718 -9.67097e-20)
(6.98764 -1.70208 0)
(6.89308 -1.76585 1.08282e-20)
(2.98393 -1.26756 7.88937e-19)
(1.28724 -0.908088 -4.88556e-18)
(5.36225 -0.118224 9.41294e-19)
(7.60908 -1.00925 2.59515e-19)
(5.86693 -2.56567 -2.19015e-19)
(5.86928 -2.62572 5.21095e-19)
(5.22321 -0.0547804 -3.94902e-19)
(5.14652 -0.0447044 -5.26112e-19)
(7.04314 -1.61781 -1.73971e-21)
(7.02844 -1.58074 1.28105e-20)
(7.08596 -3.41819 0)
(7.28712 -4.49646 0)
(7.20275 -1.00475 5.45563e-20)
(7.45659 -0.741143 2.13234e-19)
(7.20597 0.155571 0)
(4.08172 0.331853 -1.46336e-18)
(6.74199 -0.080999 0)
(7.36367 -3.03534 3.39896e-19)
(0.736211 -0.523631 2.57672e-17)
(7.22335 -3.73939 0)
(6.05302 1.98271 -5.99154e-20)
(1.72158 -1.03647 -4.27127e-19)
(1.78783 -1.05334 1.76479e-18)
(6.16803 2.53675 0)
(6.15349 2.55895 -2.32874e-19)
(6.74359 2.41475 0)
(5.1653 -0.539849 0)
(6.37268 -0.462394 -6.62647e-20)
(8.34659 -2.49087 7.02855e-19)
(6.83276 -1.24696 0)
(6.33346 -1.25715 0)
(6.41193 -0.324956 -7.02899e-20)
(5.73408 -1.14049 2.03369e-19)
(3.43473 -0.311336 6.56472e-18)
(6.76425 -1.42995 -3.81485e-20)
(7.59614 -1.17678 -5.68617e-19)
(7.62164 -1.16973 0)
(6.13743 -0.211973 0)
(2.92699 -5.52957 6.69989e-18)
(1.67805 0.458619 -6.42633e-19)
(4.9675 2.40597 -4.97141e-19)
(6.38623 -2.11755 1.24043e-19)
(5.04373 2.63242 0)
(5.29339 -0.0983455 3.43758e-19)
(5.34856 -0.13559 6.78939e-19)
(6.92209 -1.07413 1.98898e-21)
(6.09212 -0.312712 1.69104e-19)
(6.81877 -1.62709 -2.24575e-21)
(6.82292 -1.6865 -4.1337e-20)
(6.89015 0.0721617 -1.77328e-20)
(6.41021 -0.437417 -1.22429e-19)
(6.53877 -0.286247 0)
(6.57968 -0.270485 3.35814e-20)
(5.32934 -3.01029 0)
(5.14217 -3.0187 0)
(3.97438 -0.553117 0)
(4.77492 0.062498 -2.60563e-18)
(4.89495 0.0618738 0)
(4.83312 -0.0285843 0)
(6.9686 -0.732976 8.5938e-21)
(5.66626 1.959 -8.15826e-20)
(5.44426 1.62633 -6.37127e-20)
(4.1243 -1.22066 0)
(4.02372 -1.21006 3.42342e-19)
(5.7358 -0.395408 0)
(6.02618 1.69177 2.28459e-21)
(5.39898 -0.122343 0)
(3.75232 -0.6165 1.87636e-18)
(5.4279 -0.653093 1.08496e-18)
(5.47869 -0.675015 -4.74427e-20)
(7.11009 -0.144752 -7.89848e-20)
(6.80104 0.615136 9.28285e-18)
(6.74816 2.90983 5.78742e-19)
(5.2019 -0.484371 0)
(5.21334 -0.52664 0)
(6.66966 0.186321 1.0211e-21)
(6.02082 1.8724 0)
(5.74665 -1.10852 0)
(6.42522 -1.01811 -4.2082e-21)
(6.36539 -1.08629 -4.19556e-19)
(6.27091 -0.30632 -7.28411e-20)
(6.27167 -0.322487 1.10223e-19)
(3.62145 -0.4172 -3.94641e-19)
(6.59242 -1.70329 4.44122e-20)
(6.14694 -2.94 -1.46801e-19)
(6.0932 1.20981 3.41987e-20)
(5.82778 -1.05801 2.66522e-19)
(6.69646 -0.429578 1.21152e-20)
(6.66523 -0.436135 -6.50904e-20)
(5.31197 -0.0883525 -7.44431e-19)
(5.41498 -0.289095 0)
(5.41896 -0.268441 -3.19415e-21)
(5.04167 -4.05138 9.21076e-19)
(6.50368 0.348535 0)
(6.11441 1.27316 8.13373e-20)
(3.64052 -1.20876 0)
(3.66674 -1.23374 4.99699e-19)
(5.1713 -0.239219 -1.14552e-19)
(6.45562 -0.27232 0)
(6.4822 -0.253581 0)
(6.13126 1.0226 1.9256e-20)
(6.057 1.1403 3.34245e-20)
(6.03127 1.16603 6.14906e-20)
(4.874 -4.4548 -7.97935e-19)
(7.26111 -0.135385 -6.7966e-20)
(7.31648 -0.106292 0)
(8.2956 -2.53404 1.31173e-18)
(6.95452 -1.681 -1.63785e-20)
(6.95187 -1.62306 -6.02243e-21)
(6.89967 -1.71725 2.84933e-20)
(6.15968 -0.558844 4.80089e-20)
(6.15519 -0.535195 0)
(6.29968 -0.589874 0)
(6.2954 -0.611133 0)
(7.03904 -1.03455 0)
(7.05506 -1.00563 0)
(7.41684 0.325291 1.02863e-19)
(4.76127 2.48546 5.16821e-19)
(5.39899 2.30759 -5.33901e-19)
(5.42863 2.18364 0)
(6.31829 -1.18123 2.23584e-18)
(6.25499 -0.926238 0)
(7.04521 -4.17473 0)
(5.34205 -0.375037 3.82739e-19)
(5.69682 -1.09095 -3.12472e-19)
(5.43612 -1.11336 6.21647e-19)
(7.09769 -3.8945 1.22813e-19)
(6.28112 -1.83082 3.06798e-19)
(7.45018 -1.0652 0)
(6.10964 1.2756 4.82999e-20)
(6.12459 1.13968 0)
(7.615 -1.79157 -1.77972e-19)
(7.533 -1.25352 -2.66483e-19)
(6.5291 -0.208676 1.70487e-20)
(5.01295 -0.547298 0)
(6.57179 -3.12032 2.4713e-19)
(5.21262 2.51843 0)
(5.18113 2.46496 4.42672e-18)
(5.78664 -1.13725 -6.76342e-20)
(5.44337 -0.526804 7.45073e-19)
(7.20571 0.207715 0)
(2.29752 -1.98318 0)
(6.41521 1.6982 0)
(6.31436 1.80303 0)
(6.33892 -1.83307 4.66346e-19)
(6.39102 -0.217624 2.19296e-20)
(6.36723 -0.233131 -6.81044e-21)
(5.71877 2.62926 6.15142e-19)
(5.69053 2.70303 -8.39371e-20)
(6.5214 -0.402183 0)
(5.78204 2.53434 -4.30377e-18)
(7.79994 0.182097 0)
(7.71319 0.123946 3.6275e-19)
(6.22654 -0.339988 0)
(5.26122 2.68297 0)
(5.15081 2.68969 1.60284e-19)
(6.75353 -1.31814 8.86383e-20)
(5.26423 2.57738 3.33903e-19)
(5.14093 2.56429 0)
(6.55912 -1.58468 -2.34642e-19)
(7.36655 -1.11284 5.7493e-20)
(7.44097 -1.01747 1.6564e-19)
(6.10131 1.09514 -4.40093e-20)
(6.11244 1.11974 0)
(6.87059 -0.148756 -4.34292e-22)
(7.43114 0.179155 -6.58047e-21)
(7.41756 0.223372 5.98696e-21)
(6.47248 -1.77968 -3.20971e-19)
(6.41703 -1.85886 0)
(3.49018 -1.31341 0)
(2.50771 -1.09554 -9.68162e-19)
(2.19017 -1.10405 1.18625e-18)
(6.78256 -1.88291 6.46835e-21)
(4.30244 0.192563 0)
(5.5825 2.02301 4.00293e-21)
(5.55611 2.1441 -2.16414e-19)
(1.7511 -1.10274 0)
(1.51406 -1.10882 -3.73832e-18)
(6.53887 -1.76839 -2.73423e-20)
(6.55785 -1.71025 1.08076e-19)
(6.49264 -1.75528 2.84721e-19)
(4.88687 -0.114551 1.05413e-18)
(4.8302 -0.0346435 5.84766e-19)
(5.86494 -1.06534 9.64176e-19)
(6.98299 -0.299985 3.34438e-20)
(6.54716 -0.433005 -5.24518e-21)
(5.4771 -1.09867 0)
(5.38573 -1.09695 0)
(5.61055 -1.08937 0)
(2.72358 -2.21031 6.85154e-19)
(2.79128 -2.27328 1.93438e-18)
(6.24825 -1.23804 0)
(6.53759 -1.43711 -8.6883e-20)
(8.01318 -0.28302 -7.259e-20)
(8.04215 -0.300602 0)
(6.26796 -1.35094 -2.8523e-19)
(6.27397 -1.39489 1.83789e-19)
(6.6303 -1.06343 -9.77251e-19)
(6.54884 -1.05767 8.07225e-19)
(6.76728 -1.05996 0)
(5.34179 -0.18466 4.35066e-19)
(5.36573 -0.172404 3.23864e-19)
(1.26031 -1.22892 0)
(6.16786 -1.07444 -5.57337e-19)
(5.24229 2.26556 8.09119e-20)
(5.63261 2.27908 5.94691e-18)
(2.95583 -1.19255 6.23555e-19)
(3.01059 -1.21675 0)
(3.5129 -4.61432 -4.61904e-18)
(7.6072 -0.845782 2.59895e-19)
(7.27779 -0.369361 1.28323e-19)
(7.36377 -0.359537 4.49932e-20)
(6.29914 -0.327301 -1.65533e-19)
(4.46032 0.318103 -3.75341e-18)
(6.60246 3.09583 0)
(6.66367 3.12047 0)