/*--------------------------------*- C++ -*----------------------------------*\
  =========                 |
  \\      /  F ield         | OpenFOAM: The Open Source CFD Toolbox
   \\    /   O peration     | Website:  https://openfoam.org
    \\  /    A nd           | Version:  6
     \\/     M anipulation  |
\*---------------------------------------------------------------------------*/
FoamFile
{
    version     2.0;
    format      ascii;
    class       volScalarField;
    location    "700";
    object      nut;
}
// * * * * * * * * * * * * * * * * * * * * * * * * * * * * * * * * * * * * * //

dimensions      [0 2 -1 0 0 0 0];

internalField   nonuniform List<scalar> 
29884
(
0.276377
0.225753
0.122066
0.155995
0.156359
0.129644
0.193606
0.263979
0.21381
0.141145
0.153477
0.141699
0.153029
0.287675
0.28022
0.192088
0.287333
0.266732
0.280005
0.172746
0.27856
0.118572
0.142526
0.140649
0.144304
0.155019
0.194068
0.219322
0.150206
0.253758
0.148655
0.162934
0.195374
0.18529
0.143755
0.147363
0.249498
0.166614
0.17933
0.187617
0.231649
0.184849
0.176345
0.200845
0.183853
0.166645
0.1755
0.176287
0.136627
0.170886
0.167682
0.174259
0.193028
0.275063
0.263326
0.267555
0.187399
0.284622
0.262565
0.266935
0.19839
0.190129
0.13529
0.171044
0.166638
0.17281
0.280363
0.203973
0.302552
0.211415
0.141249
0.149599
0.143863
0.109379
0.318064
0.281404
0.234527
0.231454
0.226158
0.211559
0.180302
0.197756
0.114599
0.142332
0.128041
0.0971441
0.14876
0.156528
0.138907
0.0718781
0.144831
0.156687
0.100464
0.0634429
0.151781
0.000408802
0.139839
0.139913
0.149668
0.0660559
0.139784
0.139252
0.169571
0.176972
0.153251
0.196407
0.0779622
0.0764602
0.15382
0.138846
0.162637
3.54828e-05
0.135377
0.119447
0.141195
0.142076
0.149625
0.110741
0.147765
0.136924
0.139771
0.141052
0.161351
0.140097
0.138744
0.262006
0.224895
0.20309
0.301258
0.147718
0.143062
0.147307
0.254532
0.237698
0.134518
0.143369
0.165763
0.151946
0.163475
0.163615
0.15538
0.162016
0.173213
0.157184
0.170776
0.173857
0.160346
0.165458
0.178563
0.173873
0.171491
0.0946622
0.0830234
0.183168
0.248674
0.215217
0.19862
0.174848
0.229104
0.200929
0.188838
0.156111
0.15429
0.172909
0.000281129
0.000277605
0.204964
0.160469
0.139547
0.139389
0.212184
0.139253
0.139082
0.12018
0.120983
0.151804
0.143986
0.189035
0.142652
0.155944
0.145609
0.12901
0.131217
0.13518
0.117836
0.131792
0.139606
0.13924
0.155431
0.150315
0.155823
0.141536
0.136702
0.143512
0.146319
0.146754
0.141221
0.146814
0.151872
0.149788
0.218053
0.177396
0.153696
0.142327
0.150043
0.136263
0.143887
0.128401
0.14041
0.184458
0.174237
0.215344
0.219098
0.19515
0.257844
0.0577366
0.10077
0.0575429
0.112347
0.0388622
0.0368651
0.0635624
0.137516
0.119791
0.0853391
0.034498
0.0691238
0.0540422
0.0103763
0.0684354
0.0659611
0.0634507
0.0781033
0.0641358
0.0663176
0.0741614
0.0711559
0.138071
0.169868
0.0370473
0.0494365
0.000712171
0.0587889
0.04933
0.0614719
0.123547
0.0698173
0.0622212
0.123172
0.0939873
0.0654528
0.0779681
0.114575
0.111309
0.037102
0.0370251
0.044162
0.0415063
0.108571
0.112154
0.0978502
0.102677
0.0356213
0.000909588
0.0822418
0.0581805
0.0641037
0.122907
0.12256
0.0577996
0.0869165
0.0883773
0.0470849
0.053003
0.0473668
0.0766393
0.0713853
0.0541579
0.0575524
0.0436586
0.16895
0.0778298
0.129442
0.0901374
0.1383
0.116812
0.116574
0.0526847
0.00022318
0.137829
0.0485795
0.0767613
0.0773637
0.0399566
0.0633962
0.0638335
0.108456
0.0768973
0.0775376
0.0531937
0.087552
0.0711627
0.0734905
0.0720384
0.0536342
0.0594921
0.0752502
0.131681
0.111139
0.11208
0.112809
0.110282
0.0418765
0.0298203
0.0316459
0.0665354
0.0658516
0.0724225
0.0715966
0.066211
0.0820902
0.0636783
0.0584225
0.0585786
0.0691616
0.0892106
0.0407525
0.0418995
0.0440225
0.0388266
0.111225
0.112786
0.11292
0.111316
0.0573437
0.0533901
0.13772
0.115125
0.0476204
0.0458545
0.0660457
0.121323
0.0421071
0.111634
0.135494
0.0464396
0.0503966
0.0487264
0.0480799
0.0721249
0.071325
0.0652439
0.0868683
0.0878151
0.0854347
0.0624861
0.0569868
0.0541067
0.0552391
0.0575995
0.0633269
0.07369
0.132736
0.121368
0.109931
0.110123
0.12051
0.132994
0.000462963
0.0403185
0.0654548
0.0658931
0.136831
0.144207
0.129259
0.0999759
0.095366
0.0683895
0.0646702
0.0670985
0.0633535
0.117198
0.126843
0.122625
0.13154
0.0577695
0.0626572
0.0602147
0.0600799
0.0889981
0.0852345
0.0835199
0.0911283
0.0651937
0.0666685
0.0666357
0.0637253
0.0628964
0.0604941
0.0549877
0.0831744
0.0708482
0.092271
0.0847245
0.08809
0.0896867
0.0348176
0.137279
0.138513
0.139479
0.138735
0.0507979
0.0548854
0.0476444
0.0469138
0.0449023
0.0594594
0.0990396
0.0390704
0.0458845
0.0509995
0.031311
0.0532522
0.0566879
0.0503673
0.071703
0.0793774
0.0737897
0.076286
0.0499853
0.0552391
0.0530629
0.0520824
0.130019
0.0641406
0.0617305
0.0663552
0.0601416
0.0643157
0.06802
0.0675482
0.0705346
0.0702059
0.0676148
0.151373
0.150043
0.135445
0.0677723
0.0665857
0.0673841
0.0665357
0.122121
0.137904
0.0752437
0.0849198
0.130409
0.145185
0.139307
0.130581
0.169776
0.00580017
0.124303
0.125719
0.075392
0.0583212
0.0600215
0.0618164
0.0571182
0.0815253
0.090469
0.0864792
0.0859874
0.13796
0.137773
0.138024
0.139693
0.139634
0.165638
0.151086
0.157494
0.158835
0.140627
0.144608
0.142526
0.14246
0.0485163
0.0462573
0.0445288
0.049485
0.104032
0.102864
0.106545
0.0446649
0.0418491
0.0418922
0.0443551
0.136981
0.134732
0.136238
0.000716709
0.00433274
0.138707
0.0105989
0.119884
0.139544
0.138728
0.00105516
0.001734
0.139054
0.139069
0.139245
0.138915
0.0878412
0.138561
0.136149
0.000266883
0.000311497
0.137336
0.0610968
0.229771
0.139355
0.256189
0.126313
0.140656
0.138829
0.000618443
0.141337
0.134131
0.140293
0.137819
0.0713131
0.135527
0.137678
0.122796
0.134517
0.144463
0.12959
0.124395
0.170276
0.210835
0.240794
0.108376
0.109506
0.139101
0.139077
0.139773
0.139633
0.130147
0.00655667
0.128414
0.121718
0.104527
0.139178
0.127502
0.139154
0.139144
0.139109
0.00269025
0.13844
0.138657
0.0672526
0.0763809
0.0776806
0.122681
0.243849
0.209344
0.132711
0.128797
0.13069
0.101872
0.107146
0.127656
0.128411
0.184371
0.204809
0.128582
0.252252
0.138265
0.138352
0.253185
0.206922
0.000850434
0.126301
0.261641
0.0960567
0.141813
0.142987
0.000358238
0.0760721
0.0697449
0.137508
0.139616
0.139414
0.135903
0.121134
0.131347
0.129635
0.0396499
0.0395607
0.144068
0.141496
0.145024
0.139562
0.139299
0.00099008
0.13898
0.137366
0.136107
0.137835
0.138102
0.138323
0.183996
0.133393
0.136297
0.130203
0.132785
0.160421
0.166223
0.199392
0.177045
0.121076
0.137579
0.133258
0.14131
0.159839
0.151715
0.145727
0.159851
0.150013
0.146654
0.123398
0.119499
0.0563939
0.0518496
0.0479332
0.0385065
0.139029
0.140695
0.142164
0.25354
0.194455
0.0870322
0.0933608
0.200674
0.171865
0.196752
0.14556
0.159317
0.153813
0.164545
0.234689
0.189094
0.181577
0.0627352
0.0635495
0.138777
0.138581
0.13958
0.138312
0.156955
0.111371
0.114724
0.118417
0.137596
0.138203
0.137579
0.137664
0.137257
0.139696
0.162098
0.153531
0.132905
0.139531
0.142451
0.145117
0.135621
0.136198
0.212511
0.268134
0.238092
0.109208
0.113598
0.116056
0.00487099
0.00530698
0.136201
0.133609
0.0651428
0.0609417
0.1659
0.16875
0.162021
0.0407607
0.0383862
0.0849298
0.0839666
0.0376242
0.043208
0.0478629
0.102909
0.0925825
0.103274
0.029126
0.102723
0.00570894
0.0430867
0.0165851
0.0603756
0.0345892
0.0147973
0.0817476
0.0572841
0.0073109
0.0153962
0.0162633
0.0895639
0.0898463
0.101675
0.0730005
0.0726408
0.1046
0.0797625
0.0783286
0.0324337
0.102796
0.101756
0.0543665
0.0611654
0.0603811
0.070633
0.0989621
0.0994088
0.0506418
0.0943016
0.0952004
0.0259207
0.00278361
0.0396712
0.0417245
0.0327037
0.11104
0.094479
0.0237947
0.0631718
0.0263926
0.0809597
0.0762911
0.101074
0.011301
0.0795916
0.0790921
0.107413
0.0856149
0.0914261
0.0607864
0.0717927
0.0829435
0.0940305
0.0940334
0.0312688
0.101554
0.0226088
0.0272125
0.105985
0.0970335
0.0497572
0.0667622
0.0412636
0.04564
0.0306643
0.0600744
0.0621553
0.092309
0.0014936
0.0449701
0.0706229
0.0872993
0.0624938
0.0612888
0.109244
0.0481136
0.0483111
0.0461288
0.00145272
0.0747803
0.0419861
0.0426595
0.0218027
0.0822196
0.0809073
0.040422
0.0420922
0.0314323
0.0319529
0.0633458
0.0771312
0.0647511
0.0755722
0.0729681
0.104388
0.0619012
0.00825829
0.075775
0.0765814
0.0347986
0.0852802
0.0898893
0.0218787
0.00162243
0.0573657
0.0415289
0.0966733
0.0959576
0.0482845
0.0442221
0.0821894
0.08319
0.0610743
0.013026
0.067557
0.045326
0.0362294
0.0364198
0.0603481
0.0563363
0.002285
0.0395213
0.0882093
0.0131403
0.0129927
0.0956973
0.095714
0.118816
0.0918813
0.10454
0.00947554
0.10149
0.091486
0.0936207
0.0703665
0.0625178
0.0972829
0.0547699
0.0512893
0.0952298
0.00663327
0.0159833
0.0513395
0.102551
0.0700367
0.0582599
0.0630635
0.0870113
0.102869
0.0940392
0.0934778
0.048837
0.101219
0.0831498
0.0799197
0.0825456
0.0796406
0.0674969
0.0361428
0.0347309
0.0340733
0.0760942
0.0683503
0.0334405
0.0746856
0.0721078
0.0959809
0.0821675
0.0548109
0.0345366
0.099467
0.100891
0.046544
0.136263
0.107648
0.0908574
0.0925463
0.0533805
0.0844791
0.0697103
0.112392
0.0779946
0.0995879
0.100772
0.0566823
0.102496
0.0387831
0.0814419
0.0743758
0.0827459
0.0848194
0.0503528
0.0817291
0.0800987
0.0579152
0.135345
0.0866983
0.0342895
0.033347
0.0767188
0.0866101
0.0836628
0.0828519
0.0777835
0.0760861
0.0467072
0.0404426
0.0373784
0.0107238
0.0872885
0.0874951
0.0898289
0.1144
0.113743
0.112793
0.113463
0.0790749
0.0770012
0.0271509
0.0633474
0.0642328
0.0633096
0.0624148
0.115806
0.0211462
0.0870917
0.0708642
0.0662288
0.0301851
0.106127
0.0782485
0.0842928
0.0851717
0.0471603
0.0491551
0.0779112
0.0895094
0.0413534
0.0865924
0.0869117
0.0689388
0.0960549
0.0354982
0.00500161
0.126069
0.124353
0.105722
0.0862187
0.088965
0.081561
0.0826103
0.0919682
0.103389
0.0183105
0.0216384
0.103707
0.0791137
0.0729302
0.097999
0.0654782
0.0615276
0.104218
0.0571723
0.0518769
0.0895268
0.0898561
0.0573039
0.0290037
0.0288619
0.104463
0.104428
0.0159638
0.0233069
0.0172395
0.0945561
0.0444056
0.0661725
0.0670685
0.0102403
0.00743755
0.103357
0.103346
0.104333
0.0668537
0.0616516
0.0758898
0.0579534
0.0927484
0.0678744
0.0671848
0.0702679
0.0285317
0.0299138
0.129121
0.106336
0.0172044
0.016399
0.111642
0.111177
0.0785181
0.0790896
0.0787972
0.0703665
0.0678815
0.00455201
0.0768126
0.0578344
0.10575
0.0245476
0.0241855
0.0168376
0.0391337
0.0452679
0.0409345
0.099599
0.0349777
0.0943822
0.0956975
0.115552
0.109671
0.068905
0.0363656
0.0370769
0.0516978
0.0543861
0.100403
0.0998397
0.0985825
0.0563509
0.0627269
0.0718839
0.0261459
0.0357097
0.103814
0.0453666
0.046555
0.0837364
0.0860922
0.0904172
0.065246
0.0672195
0.0657238
0.0574668
0.108236
0.108157
0.10746
0.109492
0.110179
0.0714977
0.115434
0.0110324
0.0405788
0.0462686
0.0292635
0.0300347
0.0808183
0.0800847
0.0715241
0.0743858
0.0956758
0.0957057
0.0948219
0.0961365
0.092872
0.0533817
0.0512099
0.0332553
0.0636669
0.0321893
0.0786989
0.0799234
0.0782339
0.00684999
0.0750842
0.106052
0.103439
0.0893248
0.0876986
0.0910223
0.104784
0.105804
0.0456162
0.0483481
0.0476915
0.0461621
0.0578965
0.0536294
0.065334
0.0947166
0.0941822
0.0940292
0.0986761
0.0878756
0.0296376
0.0452925
0.0411498
0.054049
0.0509453
0.0372587
0.105502
0.085948
0.0881713
0.0740157
0.106938
0.104031
0.088048
0.0963999
0.069537
0.0666572
0.070069
0.0487202
0.046663
0.050971
0.084825
0.0555791
0.105738
0.104634
0.104605
0.0431333
0.103598
0.104518
0.103649
0.0389137
0.000945815
0.0720463
0.0721673
0.0699512
0.011991
0.000397239
0.102036
0.0588697
0.107775
0.0732471
0.0759185
0.0773997
0.0894323
0.0786634
0.112479
0.0142998
0.0758784
0.0755439
0.0782546
0.0567274
0.100957
0.0996091
0.101929
0.104863
0.10491
0.000659192
0.083282
0.0810676
0.100161
0.102884
0.0981391
0.000907776
0.000785152
0.09176
0.0411085
0.0349773
0.070806
0.0744091
0.0738717
0.0712211
0.0871733
0.052835
0.0509153
0.0789504
0.000597963
0.102385
0.103674
0.0799043
0.0786953
0.0981379
0.0248566
0.0787389
0.0770997
0.0980666
0.0983596
0.0332465
0.0855117
0.0862213
0.0861613
0.0993421
0.099133
0.114813
0.0869099
0.0904379
0.0539753
0.00196317
0.0432721
0.0767463
0.000559032
0.0421166
0.0914998
0.0850948
0.0120158
0.0822384
0.0800963
0.0988483
0.100046
0.0872521
0.0832035
0.058562
0.059395
0.0558363
0.0770707
0.0782581
0.0766383
0.104213
0.105377
0.000933441
0.0236884
0.000497314
0.0940189
0.0107604
0.136071
0.136262
0.136386
0.136036
0.107803
0.0883657
0.0875833
0.137861
0.138192
0.0947132
0.0782373
0.0766723
0.0764704
0.0625479
0.0896514
0.0846306
0.087956
0.0932473
0.0893592
0.0555527
0.0513574
0.0526944
0.000527377
0.0604638
0.0618343
0.0633602
0.0591284
0.104707
0.105723
0.0323658
0.0932866
0.0948329
0.101926
0.0731929
0.074133
0.0717944
0.0527476
0.0505483
0.055177
0.0541943
0.0530596
0.128087
0.071953
0.0572374
0.0552506
0.104732
0.105937
0.0922671
0.092273
0.0930357
0.0915405
0.106943
0.105716
0.100691
0.0730548
0.0743094
0.0709857
0.0982324
0.0959747
0.000308302
0.0703636
0.0724755
0.0348886
0.0308129
0.000432367
0.000696206
0.000685424
0.0397298
0.0391327
0.0210918
0.0214578
0.112628
0.098412
0.104338
0.0804393
0.0391055
0.0324631
0.0312267
0.0352593
0.0720686
0.0729181
0.0728894
0.0722724
0.000437211
0.000753402
0.000859236
0.00142489
0.00925854
0.0210473
0.0611555
0.0592597
0.000819804
0.0647199
0.0256442
0.0918378
0.0915946
0.0941891
0.0907167
0.0914361
0.0903985
0.105296
0.106844
0.104165
0.102399
0.11081
0.0715675
0.0734546
0.0705621
0.075545
0.0776741
0.0725124
0.11637
0.104918
0.109978
0.0941487
0.0950763
0.095144
0.113436
0.0985786
0.0998411
0.0976713
0.0675345
0.0717733
0.0800846
0.0961295
0.0950698
0.0948469
0.000405014
0.000681687
0.0889148
0.0898423
0.0893368
0.0893865
0.0463469
0.0910824
0.090607
0.0893853
0.0914585
0.0927924
0.0932069
0.0909113
0.0694002
0.0710885
0.067695
0.176756
0.0476624
0.0791866
0.0792655
0.0787044
0.0797849
0.0782557
0.084272
0.101601
0.102994
0.107064
0.106258
0.0378057
0.128447
0.0359961
0.0336772
0.105714
0.000356141
0.0729184
0.0807321
0.109294
0.109932
0.108963
0.0830863
0.0841056
0.0128806
0.0473806
0.0462024
0.0494098
0.0591859
0.061322
0.0558832
0.0656215
0.0688184
0.0680665
0.00752935
0.00778342
0.0751602
0.0757396
0.0848578
0.083301
0.0861857
0.000331299
0.0569629
0.000654945
0.1043
0.0693611
0.0658504
0.0689052
0.0652756
0.00208023
0.0686419
0.0713811
0.0688632
0.100859
0.0800798
0.0901897
0.0890712
0.0770738
0.0764195
0.0757286
0.0775805
0.042693
0.0396372
0.0416576
0.0403421
0.0699452
0.0681724
0.0705172
0.0689732
0.00125242
0.00849755
0.0895434
0.0899852
0.0891823
0.0902852
0.0887534
0.0905387
0.0909521
0.0337962
0.07514
0.0746958
0.0764007
0.10161
0.100441
0.101106
0.0947037
0.0966957
0.0953432
0.0969585
0.098254
0.0664889
0.0639497
0.0634303
0.066892
0.103099
0.104917
0.104221
0.103655
0.0586269
0.0567078
0.0611423
0.05447
0.0528426
0.105054
0.104743
0.104442
0.063243
0.0594306
0.069904
0.0714393
0.120699
0.119094
0.119397
0.120476
0.0813827
0.0778938
0.0790103
0.0660738
0.0701708
0.0576602
0.0546732
0.0540119
0.0352361
0.0952643
0.0934211
0.078017
0.0827075
0.0831533
0.0631408
0.0859051
0.0878833
0.0876706
0.0859416
0.00132813
0.0877471
0.090128
0.08821
0.0896519
0.13708
0.137227
0.0853045
0.0821234
0.0828798
0.0845033
0.0721791
0.0736211
0.0693038
0.0490949
0.0526792
0.0481938
0.074731
0.0779388
0.0753512
0.0774769
0.0755709
0.1131
0.0959759
0.058986
0.0583626
0.0602536
0.0570265
0.0112166
0.110387
0.0110012
0.0109394
0.0923946
0.0916861
0.0917264
0.0923053
0.0631908
0.079733
0.0793073
0.101043
0.100835
0.100469
0.100295
0.0840044
0.0806342
0.0811226
0.0803057
0.0688113
0.0647453
0.0666082
0.066854
0.0518936
0.101595
0.101224
0.0241238
0.0285621
0.0800039
0.0773645
0.0791172
0.00113177
0.0538366
0.10856
0.0738072
0.0732496
0.0752204
0.100591
0.0469736
0.0439407
0.0492194
0.110979
0.108333
0.109749
0.0779953
0.0778783
0.128603
0.129638
0.0639695
0.0649149
0.066617
0.0989351
0.0951835
0.0893452
0.026126
0.0310034
0.0287852
0.0233428
0.0227532
0.0116811
0.0096606
0.0150069
0.0838437
0.0933292
0.0953223
0.0894334
0.0881518
0.091527
0.102541
0.101902
0.0792961
0.079535
0.0920864
0.0925637
0.0684838
0.0714116
0.103924
0.118826
0.096379
0.0972151
0.0832957
0.0856657
0.081819
0.0853089
0.0872368
0.0862375
0.0228109
0.0273472
0.0992789
0.0971139
0.0979484
0.0986128
0.0732159
0.0745496
0.0757464
0.0767015
0.0446333
0.0439756
0.0459035
0.0425748
0.000951509
0.0797944
0.0805193
0.0817994
0.0734999
0.0692853
0.0527319
0.0498307
0.107107
0.106202
0.107003
0.0758107
0.0820479
0.0803136
0.0811695
0.0811468
0.0805521
0.0553011
0.0920767
0.0910007
0.0687666
0.0682722
0.0700425
0.0669428
0.0812734
0.081794
0.0792712
0.0137112
0.0148661
0.0116833
0.082579
0.0841774
0.0800912
0.0505564
0.0483333
0.0795231
0.076671
0.0784178
0.0794812
0.0807713
0.101593
0.0610175
0.0638463
0.0642382
0.0791403
0.0550661
0.0516085
0.0533415
0.053239
0.111264
0.109381
0.109512
0.111035
0.0903975
0.0737693
0.0746578
0.073271
0.0753928
0.102048
0.0922443
0.0918907
0.0929556
0.0912756
0.0906098
0.0915856
0.0920622
0.0902698
0.0344923
0.0823006
0.0821685
0.0795284
0.0800626
0.000637219
0.0138855
0.0704581
0.0699341
0.0966198
0.0978729
0.0731863
0.0726553
0.0753232
0.0769879
0.0764984
0.00644063
0.00797311
0.0831006
0.0797759
0.0813748
0.0815957
0.100823
0.0881928
0.0871825
0.0877767
0.0112719
0.076308
0.075823
0.0778838
0.07421
0.056901
0.0590183
0.0566114
0.0591372
0.0841031
0.0837196
0.0830991
0.0934931
0.0434408
0.042143
0.0413395
0.0440731
0.0263382
0.0274473
0.0770053
0.0998406
0.100435
0.100044
0.0634911
0.0667249
0.0659887
0.0640846
0.10017
0.101169
0.0907291
0.092473
0.0924505
0.0906088
0.0543714
0.0759562
0.0761093
0.0598952
0.0233566
0.0204119
0.0685891
0.0711966
0.10741
0.106794
0.108654
0.0984765
0.0978177
0.0974504
0.034256
0.0321302
0.0338608
0.0899219
0.0914458
0.0919832
0.0893632
0.0346931
0.0553561
0.0554195
0.0572303
0.0536038
0.00408154
0.0358217
0.0604604
0.0635903
0.0933042
0.094881
0.0951593
0.0928458
0.128285
0.0892234
0.088468
0.0885028
0.0891324
0.0957914
0.0977836
0.0950838
0.0613695
0.0913132
0.0906606
0.0913567
0.0893007
0.0932721
0.0555762
0.0603123
0.0582676
0.0751789
0.0749607
0.0761184
0.111818
0.0366343
0.0935573
0.0505441
0.0464534
0.0883647
0.0876637
0.0910436
0.0223167
0.0191091
0.0242676
0.0994532
0.0787022
0.0794814
0.0783984
0.0542156
0.0528906
0.0873138
0.0849176
0.0855722
0.0867792
0.0911812
0.0906805
0.0436686
0.0456202
0.0905858
0.0888365
0.090626
0.0885585
0.124048
0.124472
0.0697053
0.0895503
0.0894352
0.0892879
0.0726216
0.0735966
0.0723977
0.025468
0.0602495
0.0596973
0.0624013
0.0577795
0.0745951
0.0780439
0.0765041
0.0762576
0.0708453
0.067006
0.0693026
0.13067
0.116161
0.128721
0.12073
0.0372396
0.0797715
0.0788425
0.114141
0.115755
0.0643929
0.0632941
0.0621174
0.0654802
0.0906413
0.0898804
0.120542
0.118705
0.0661353
0.0965821
0.0980117
0.0983431
0.047021
0.0431103
0.0461365
0.043053
0.0269148
0.0299846
0.0672417
0.0697768
0.0678892
0.0550151
0.0491961
0.0527555
0.051963
0.0920618
0.090657
0.108532
0.0983028
0.0690919
0.071935
0.0709764
0.0696556
0.100981
0.0367247
0.0388108
0.0408895
0.0354265
0.107671
0.105878
0.108606
0.0333865
0.0348782
0.0420601
0.0424672
0.0406729
0.0439177
0.0741416
0.0771933
0.0454757
0.0472366
0.0953772
0.0649029
0.0897404
0.0885156
0.082341
0.00530891
0.110854
0.110233
0.110823
0.0730811
0.032403
0.0639395
0.10727
0.0977939
0.0946035
0.113448
0.0782474
0.0791037
0.0782289
0.0530915
0.0545939
0.000265601
0.0539135
0.0592398
0.114957
0.112992
0.113611
0.114378
0.0986147
0.100584
0.100201
0.0989438
0.102604
0.103607
0.101893
0.104186
0.0473721
0.0477906
0.0495059
0.0457454
0.105791
0.104849
0.1058
0.104688
0.0641142
0.0661954
0.0608745
0.0311842
0.0351156
0.0447435
0.0784923
0.0770791
0.123384
0.122231
0.0552929
0.0248541
0.094017
0.0945754
0.0949907
0.0555249
0.0670457
0.065816
0.0644582
0.0681925
0.102772
0.10423
0.102615
0.1032
0.103668
0.0478676
0.0444625
0.0467098
0.0453741
0.0877618
0.0873322
0.088016
0.0870452
0.075631
0.0740441
0.0744681
0.0751913
0.108599
0.109037
0.109113
0.108424
0.0569425
0.0532719
0.0558718
0.0541121
0.0734776
0.0716229
0.0716389
0.0701609
0.070448
0.0708812
0.114519
0.117301
0.115749
0.114238
0.0801014
0.078871
0.079252
0.0618057
0.0592042
0.0612325
0.0579343
0.0570268
0.055646
0.0550081
0.0231579
0.102833
0.102092
0.000251315
0.0789388
0.0813555
0.0791528
0.0810431
0.0880014
0.0733336
0.0845344
0.0553654
0.00550168
0.00500922
0.00650085
0.0770874
0.0778863
0.128012
0.0730933
0.0722749
0.0616409
0.0590262
0.060669
0.0658024
0.0679068
0.0667613
0.0675012
0.0822258
0.0820674
0.0820479
0.086459
0.0892222
0.041928
0.0446552
0.0432192
0.000219064
0.0655537
0.066674
0.109943
0.108434
0.0676699
0.0689917
0.0661807
0.0703018
0.0286435
0.0316368
0.0343073
0.0366506
0.118802
0.117639
0.0764666
0.0753696
0.0773312
0.0745796
0.0648887
0.0740614
0.0724077
0.110564
0.107978
0.10913
0.109345
0.0851701
0.0843029
0.0854833
0.0838433
0.0823536
0.0837585
0.0836184
0.0823943
0.0749221
0.0752715
0.0740112
0.0372877
0.0380097
0.0389844
0.0362298
0.0616747
0.0640487
0.111354
0.0371993
0.0420164
0.0407336
0.00131
0.0677655
0.0652882
0.06688
0.0740744
0.0724135
0.0804952
0.081403
0.0801666
0.0816344
0.0457927
0.0415551
0.0859408
0.085631
0.0851086
0.0864253
0.116633
0.117611
0.118082
0.116088
0.0660103
0.0683165
0.0654853
0.0690178
0.0820182
0.0815426
0.0823953
0.0692865
0.0706837
0.0715637
0.0682493
0.0985448
0.0986095
0.0971543
0.0535497
0.0877581
0.0869993
0.0878988
0.0869293
0.03484
0.0480562
0.0224109
0.0111702
0.0896673
0.00456627
0.00325327
0.00298357
0.0288446
0.0582361
0.0166763
0.000595285
0.00083967
0.000566072
0.000286209
0.0454087
0.000375612
0.000437285
0.0102901
0.0101458
0.0683247
0.0130248
0.0117374
0.138839
0.0168077
0.128872
0.0170201
0.0301258
0.0301161
0.0158352
0.000488346
0.0805732
0.0138459
0.00747169
0.00786412
0.0097063
0.137102
0.137086
0.0183645
0.0199389
0.0473298
0.00280985
0.0880219
0.137308
0.0886936
0.122602
0.119122
0.081327
0.00331241
0.0215525
0.000387899
0.000580407
0.000554434
0.0237675
0.0223458
0.00672635
0.0235073
0.00334897
0.00395798
0.02285
0.000611672
0.0895816
0.0496717
0.138691
0.138568
0.000455924
0.0358952
0.0340812
0.0150006
0.00780291
0.0377288
0.0371399
0.0384946
0.0668149
0.0691806
0.00668178
0.069613
0.137584
0.137241
0.0339221
0.000525802
0.00573331
0.00410053
0.0681948
0.0120341
0.0281591
0.000484321
0.0322445
0.0234742
0.130225
0.00372543
0.0151545
0.0131109
0.138411
0.114115
0.00455409
0.0800904
0.0376995
0.00768071
0.135248
0.042489
0.00229675
0.0350873
0.0339971
0.00883126
0.0201926
0.0210178
0.0227587
0.0184301
0.026223
0.0380595
0.0392271
0.0363909
0.00172328
0.0195615
0.0563185
0.136211
0.0172099
0.118974
0.0262884
0.155339
0.000665857
0.0218871
0.0208272
0.0218334
0.0928565
0.0416687
0.0428237
0.00770817
0.000362493
0.00141658
0.00321761
0.0752477
0.0734499
0.0255219
0.0283352
0.0050075
0.00636951
0.00343816
0.0324866
0.0347688
0.169934
0.00213657
0.137263
0.137666
0.0534957
0.0216037
0.03498
0.0808567
0.0791612
0.0343984
0.0328345
0.0498904
0.0446467
0.00817308
0.0069377
0.0632836
0.0224312
0.0283906
0.0568811
0.057712
0.0545286
0.00514583
0.0105412
0.0752948
0.0747038
0.0440864
0.040735
0.0266937
0.0330516
0.0342195
0.0718457
0.00382876
0.00391533
0.0463003
0.138625
0.00658768
0.00864132
0.00768535
0.00310673
0.00418336
0.00721707
0.0094648
0.0178738
0.00380372
0.00749785
0.00996226
0.0042198
0.00571396
0.030295
0.0296031
0.0447388
0.00771479
0.0106508
0.0354318
0.00054588
0.000935169
0.0304917
0.00295444
0.0339965
0.0304687
0.0240276
0.0229832
0.00987675
0.00858266
0.00960408
0.0124041
0.123396
0.00871092
0.0775935
0.0766777
0.0764935
0.0624317
0.0463826
0.00621329
0.0189405
0.00910796
0.131302
0.0444089
0.00251392
0.0117117
0.0109762
0.0134046
0.00998183
0.00675504
0.140007
0.035032
0.0374567
0.00714858
0.00563055
0.0966666
0.0791901
0.176154
0.172142
0.00733257
0.0280185
0.138808
0.0387481
0.0388477
0.000627525
0.0077342
0.0214464
0.11759
0.120149
0.0147303
0.0828145
0.00941517
0.00816998
0.00929528
0.00433276
0.0671212
0.0720197
0.0750547
0.00153839
0.0349796
0.155168
0.153705
0.114771
0.0778973
0.0291144
0.0609958
0.055641
0.0818268
0.139187
0.139063
0.0391974
0.13756
0.00171237
0.00215182
0.00907195
0.0249455
0.0170871
0.0407481
0.0408069
0.0393211
0.0394042
0.00476812
0.004127
0.00286308
0.174122
0.0840875
0.0115116
0.120967
0.129747
0.130298
0.0597828
0.0715604
0.0695204
0.166221
0.148149
0.00140702
0.00790703
0.0967011
0.0952223
0.00770725
0.00707012
0.0488373
0.0479742
0.0810009
0.079099
0.071951
0.0753833
0.0416081
0.0287896
0.0269155
0.0830623
0.0363441
0.0360408
0.04539
0.028483
0.0353453
0.0256032
0.00474284
0.043642
0.00557466
0.164047
0.0105081
0.0117366
0.0353363
0.0548905
0.0409868
0.034694
0.100739
0.0936787
0.109262
0.0358596
0.0775205
0.0225099
0.138117
0.0560165
0.00173304
0.0371684
0.00409136
0.00419818
0.137738
0.030202
0.0300818
0.0267403
0.13769
0.12175
0.129332
0.0382872
0.0633022
0.0648137
0.0779152
0.0787457
0.0587025
0.0329409
0.0358384
0.0337277
0.0353688
0.10746
0.0937937
0.136098
0.136619
0.0871526
0.0864102
0.0794534
0.00713902
0.00612098
0.0857876
0.0163749
0.136712
0.0633797
0.0654444
0.0673265
0.0712647
0.0688304
0.0706035
0.131294
0.146961
0.13925
0.086277
0.0838106
0.0844769
0.12252
0.00903328
0.0489682
0.0423822
0.0152116
0.0148875
0.0987916
0.0385548
0.0599443
0.0647822
0.0388446
0.17044
0.0212329
0.038362
0.0235149
0.0290761
0.0103263
0.024288
0.0250052
0.12176
0.124208
0.123148
0.0439819
0.045162
0.0115401
0.0758636
0.0254964
0.0228283
0.0326001
0.029197
0.0287343
0.0517007
0.0713139
0.0566496
0.059373
0.132973
0.127019
0.00214878
0.00282612
0.138743
0.0276379
0.0106951
0.0123382
0.119079
0.117573
0.138579
0.110099
0.138676
0.133034
0.132269
0.0200271
0.0406373
0.126165
0.127045
0.124949
0.125569
0.0634193
0.0618665
0.0959131
0.0981344
0.125801
0.123573
0.00316931
0.118893
0.117786
0.0559861
0.138937
0.13877
0.138712
0.114638
0.111459
0.137686
0.139702
0.138341
0.0809538
0.0433503
0.0461941
0.0464099
0.0658902
0.0665289
0.0670626
0.173749
0.171417
0.0847421
0.0485648
0.0506669
0.1755
0.172896
0.0497947
0.0502662
0.0503351
0.0311006
0.000369712
0.00338921
0.0733524
0.0188801
0.0220722
0.023534
0.0755117
0.000987771
0.00185075
0.0899462
0.0912224
0.0284951
0.00799963
0.0128823
0.0149045
0.00552292
0.0407276
0.0417917
0.0455848
0.113231
0.114967
0.0303085
0.0139977
0.0150089
0.00612918
0.00696044
0.129567
0.127741
0.157186
0.164466
0.16595
0.10901
0.068185
0.0671843
0.059194
0.0627054
0.0618802
0.0827426
0.0936649
0.0655957
0.0627194
0.0321839
0.0341828
0.138702
0.138626
0.242686
0.227092
0.0510076
0.00794299
0.0526612
0.0105052
0.0193033
0.0169431
0.0168366
0.00710854
0.146636
0.038051
0.0437482
0.055583
0.0528635
0.0598717
0.0611383
0.0619708
0.0604995
0.0586977
0.0477701
0.0264365
0.017788
0.0418764
0.0148197
0.0407792
0.136696
0.0127682
0.013579
0.165146
0.1656
0.0469875
0.0413273
0.037756
0.00937192
0.0366641
0.0379105
0.0826399
0.0540736
0.0524726
0.0639766
0.0238899
0.000571246
0.0572106
0.0588131
0.0164086
0.0128618
0.0153361
0.0818291
0.0825866
0.0816763
0.0480955
0.095022
0.0951363
0.0823413
0.0801084
0.133739
0.0972819
0.0980327
0.054536
0.0580404
0.0576149
0.0525269
0.0747033
0.0111124
0.139915
0.139687
0.139899
0.135239
0.0717951
0.0205239
0.0220913
0.0287257
0.0254806
0.0573234
0.0402001
0.0434309
0.0514376
0.0558185
0.0488045
0.0414745
0.0985091
0.104178
0.108659
0.0289723
0.0287887
0.0424342
0.0427312
0.0450284
0.0724145
0.0920393
0.0867871
0.128344
0.0375999
0.00529562
0.00595298
0.135393
0.0235645
0.0730371
0.00525447
0.036904
0.0340955
0.0371246
0.0194503
0.0257148
0.0651571
0.0222838
0.0191864
0.0174536
0.0939319
0.0325262
0.00116256
0.00227899
0.0744965
0.138294
0.10242
0.102972
0.0514234
0.111805
0.106794
0.0193655
0.0201283
0.0446456
0.0422693
0.0439684
0.0809975
0.0207239
0.0217471
0.140025
0.14051
0.0410157
0.0217309
0.0198978
0.0552198
0.138844
0.0915237
0.0895924
0.0608325
0.0883609
0.0380366
0.00501644
0.0023783
0.00516092
0.0451333
0.0931234
0.00583188
0.183072
0.00240559
0.00464391
0.0071512
0.00425597
0.00358148
0.0037571
0.00265267
0.00614293
0.129066
0.0363062
0.0378046
0.0391554
0.0614061
0.102097
0.101251
0.139425
0.13954
0.13935
0.0707124
0.0947744
0.0932911
0.067528
0.0654812
0.0631034
0.0526797
0.0529346
0.0662163
0.0643415
0.0267272
0.0290184
0.0319408
0.145538
0.150585
0.138204
0.138004
0.0478637
0.120014
0.116204
0.0340039
0.0368351
0.137625
0.137299
0.00727715
0.101362
0.100387
0.13908
0.138818
0.00897203
0.133951
0.0655566
0.0722162
0.058106
0.0441899
0.019058
0.00390056
0.0332053
0.0938135
0.0883006
0.0887618
0.0320923
0.0369268
0.0388096
0.00381533
0.0684401
0.069127
0.0603632
0.124722
0.125223
0.126192
0.0382924
0.0637017
0.0685974
0.0693216
0.0673026
0.0528486
0.105551
0.107248
0.043455
0.0596908
0.0601258
0.0584578
0.0566309
0.0589905
0.00132506
0.112666
0.11375
0.115797
0.0281693
0.0259764
0.0703164
0.0694963
0.136779
0.136703
0.043357
0.0480183
0.126692
0.127545
0.0670432
0.067639
0.0659939
0.231539
0.187582
0.0795982
0.0778687
0.0207311
0.0232394
0.121039
0.071694
0.0732513
0.131473
0.130677
0.129858
0.0421397
0.0455605
0.138488
0.138202
0.073382
0.0718335
0.0737244
0.0546671
0.051526
0.108048
0.107657
0.106578
0.025801
0.0311152
0.0772626
0.0777335
0.0209771
0.138115
0.138291
0.0664522
0.12688
0.122994
0.0288781
0.0622147
0.065473
0.0447765
0.0459658
0.0364069
0.138313
0.118143
0.102844
0.109508
0.114935
0.0340511
0.0918764
0.138209
0.0189562
0.00262525
0.00534366
0.0686031
0.0689373
0.0148124
0.0697511
0.0525528
0.0488269
0.120558
0.152281
0.0514181
0.0543809
0.037186
0.0631429
0.0673006
0.0133206
0.0720534
0.0706902
0.064209
0.00982864
0.00984055
0.121699
0.072681
0.0726391
0.069471
0.0350295
0.0404075
0.0363241
0.0491716
0.0503548
0.0165839
0.0512036
0.0506049
0.0721533
0.0693737
0.0692717
0.00806981
0.00712547
0.0902843
0.0892896
0.0882169
0.0503039
0.0461504
0.0526198
0.046518
0.0483623
0.00346088
0.0321745
0.096461
0.0964823
0.0960801
0.0957088
0.0414028
0.111822
0.112965
0.114976
0.00839838
0.148582
0.160512
0.0296993
0.0267611
0.125632
0.12392
0.150339
0.155399
0.0731447
0.0710982
0.070597