/*--------------------------------*- C++ -*----------------------------------*\
  =========                 |
  \\      /  F ield         | OpenFOAM: The Open Source CFD Toolbox
   \\    /   O peration     | Website:  https://openfoam.org
    \\  /    A nd           | Version:  6
     \\/     M anipulation  |
\*---------------------------------------------------------------------------*/
FoamFile
{
    version     2.0;
    format      ascii;
    class       volScalarField;
    location    "700";
    object      p;
}
// * * * * * * * * * * * * * * * * * * * * * * * * * * * * * * * * * * * * * //

dimensions      [0 2 -2 0 0 0 0];

internalField   nonuniform List<scalar> 
29884
(
2.80816
0.0988057
0.611057
-2.57342
-0.0374218
2.58573
0.113406
-4.4221
-0.851922
1.15638
2.89477
0.762558
-1.15331
-2.38108
0.029936
-1.93884
-0.321509
-2.20581
-4.45693
-2.97559
-3.47855
0.633762
0.369953
3.47473
-1.48497
1.22309
-0.748917
-1.37025
0.393992
0.416048
3.23834
2.81856
-0.786033
5.41843
1.9456
1.81144
0.871568
3.13971
1.91456
1.05983
0.796654
-1.57186
3.19016
5.18871
-3.57723
0.515585
-2.32652
2.21365
0.72439
2.56332
3.21912
-0.176994
1.22115
-0.847095
-2.92394
4.35163
-2.73505
-1.7027
-3.74498
-0.666245
-0.316406
-0.803309
-0.232542
1.09926
2.15658
-1.88282
1.40358
1.63815
0.764867
1.58245
-0.314525
-1.04555
7.98938
0.810858
0.538611
1.47385
-2.79558
-1.3408
-2.6186
0.924002
2.22978
-3.35795
-0.368856
2.19039
-0.224777
15.6301
0.754103
-0.619649
0.161688
19.4
0.529692
-2.40106
15.4306
20.7316
2.84767
27.6849
1.28578
1.40122
0.118195
20.6481
1.66965
1.83124
0.160384
0.556314
0.356708
-1.90908
18.7432
19.2183
3.25644
1.65146
1.31549
27.6216
-0.0721874
-0.20572
-0.192422
2.04015
2.53931
-0.0264824
4.00447
3.49194
0.915473
2.59763
2.16475
2.85491
-0.370259
3.52591
1.19316
1.47331
-0.720521
3.13446
3.36993
3.02064
-4.37219
-2.35289
-0.21295
-0.651062
2.32885
0.353919
0.340607
0.617044
0.345962
3.23195
2.06239
-1.99895
-2.15592
-1.93536
-1.59534
2.60257
2.09355
2.27658
2.81139
16.9555
18.3301
0.729672
0.636777
1.01906
0.57515
1.18837
0.877885
0.637679
0.975055
3.58835
3.7796
2.88244
25.7953
25.7114
-2.55485
-1.0347
1.13265
-6.05492
-2.82145
1.30877
1.32814
-0.362056
-0.216508
2.84197
3.15046
-2.94563
2.0411
1.81965
1.95274
5.55826
5.6188
4.93894
-0.11713
-0.094496
1.33135
1.19456
1.33985
3.36837
0.56016
4.46474
5.06236
-0.271321
-0.352291
2.70041
2.7521
0.768349
-0.00329277
0.184478
0.436326
2.69983
2.56426
1.75695
2.62763
4.09154
0.117828
-0.28654
-0.399738
-0.779799
0.572972
-0.597624
-1.80741
-3.66721
-1.71195
19.7094
2.96995
21.5484
-0.0303452
22.0242
22.3072
-11.4954
2.46178
0.289175
17.0761
22.4064
20.6209
21.8559
13.9731
-5.35843
4.65902
21.1862
19.3691
-6.82092
-7.34984
19.7026
19.908
2.9044
-4.07719
-2.48661
-3.47693
27.6462
20.1708
-5.76402
-4.35285
3.18923
19.6071
21.5194
-9.46328
-10.6432
-5.73248
1.20388
2.90457
2.76854
22.8698
22.569
21.5551
21.926
-11.5563
-10.5145
-0.116246
3.36373
-5.78837
25.5415
2.75583
21.6578
-10.098
2.47403
2.05518
21.8026
1.70101
1.82671
21.3888
21.2123
21.4525
18.0567
18.7768
21.5791
21.303
-4.19383
-0.969926
19.4495
1.65776
1.96381
3.95577
3.14748
2.79181
-8.93974
25.9284
1.95783
22.4803
19.457
19.562
-4.95229
-9.21843
-9.39552
3.44319
19.3892
19.4828
-5.41368
-4.94724
20.2714
20.0778
20.2724
21.5329
17.9243
16.9058
6.82856
2.94325
3.19134
3.17674
3.48847
21.1713
-4.36863
-4.86766
-9.26719
-6.24981
20.0978
-11.4603
-10.4269
-11.3623
20.5776
21.1207
21.3345
-10.1407
1.87672
20.4545
21.0075
21.0682
21.4364
2.44385
1.99529
1.98043
2.02579
20.2848
20.3527
2.34959
-4.59622
22.3951
22.3402
-8.19774
-3.37306
22.2177
8.44068
0.359161
22.5994
22.1811
22.3383
22.3713
19.9264
19.6164
20.5227
1.73792
1.82734
1.45517
20.9891
21.5514
21.6705
21.6703
21.591
20.4126
19.4635
6.41671
0.574107
2.69478
2.53292
2.81247
2.71646
25.2202
23.1628
-7.21056
-5.97264
0.526335
0.667968
0.480773
3.37248
2.79587
-7.9498
-9.4356
-10.0154
-10.0714
12.1126
4.21593
4.17324
3.71922
-5.32815
-6.07864
-5.8735
-5.21764
16.8392
17.9755
19.0043
17.497
-6.56406
-7.15429
-6.71588
20.1203
20.4867
-4.10539
-3.65781
18.1341
19.2622
16.7003
17.994
17.1257
16.8176
21.6013
3.16872
3.39085
2.13315
2.41902
20.3272
19.8641
22.4288
22.5953
22.797
20.0404
0.363819
20.3604
19.7242
20.59
-2.4534
21.0576
20.9101
21.7686
20.0673
19.5187
19.2627
18.8377
21.1109
20.7085
20.8449
20.303
-4.15658
18.7089
19.6302
19.5954
19.8793
-5.3316
-6.00424
21.1212
20.6053
19.893
20.1613
4.0266
3.64207
4.23749
-7.17599
-6.02834
-7.82798
-6.98187
-0.231683
-1.52116
14.9364
14.7351
1.13873
1.2091
1.18152
1.10985
-1.32506
25.4283
6.94779
6.19166
0.952561
-6.40172
-6.08004
-6.49115
-5.75598
16.7751
15.84
16.1564
15.0714
1.66146
1.5212
1.66749
0.998133
1.04325
1.15388
0.719258
0.944557
0.859389
3.80084
3.58022
3.66309
4.0789
-5.18599
-4.57771
-5.34259
-5.69754
3.31106
3.00263
3.15869
22.3932
22.6049
22.4481
21.9208
4.36062
5.16661
4.59767
27.48
25.4629
1.46692
25.1174
11.2188
0.9107
0.88292
27.8051
27.666
0.925722
0.952633
0.957989
1.42857
-9.23953
0.98737
-0.516803
27.7248
27.7261
2.46569
21.3774
-0.05778
1.06831
-4.24951
-6.09475
-1.82951
-2.05149
26.164
-3.73094
-4.23287
-0.238212
2.09826
-6.39297
-0.00178093
0.148372
0.153014
0.294291
-1.89311
3.22738
3.27428
-2.85004
-2.73414
-2.91278
-0.134578
-0.444362
1.30184
1.34596
1.14713
1.09297
4.8611
26.0215
2.31192
2.26875
-0.0021932
1.22128
-0.43582
1.01892
1.0968
1.13203
25.3742
1.49969
1.43769
-9.21824
-10.4163
-9.12375
-2.47009
-6.56691
-5.04658
-0.423067
-0.359816
-0.395013
15.0653
14.2522
-3.15074
-2.76035
-2.3628
-1.77582
7.57337
-4.7684
-0.985774
-0.813644
-2.51112
-2.82219
25.248
0.236
-1.22942
14.9211
-0.12092
0.207638
25.88
19.1086
19.7268
2.30531
1.17167
1.244
-8.12608
2.58756
6.62442
7.41942
22.6305
22.4543
4.14527
4.67441
4.47053
1.10303
1.0484
26.2162
1.3625
3.69783
3.92597
1.98099
1.78099
1.63309
2.44461
5.91335
5.27051
6.49084
5.81834
2.92342
0.576142
1.65739
-0.783657
1.72869
0.323083
0.778706
0.921081
-6.1821
-7.13745
-1.52234
-0.119424
-0.496493
-1.00227
9.70653
10.9709
19.8917
20.289
20.6787
21.838
0.895642
3.19075
2.97443
0.769432
1.41663
17.804
17.1205
-3.77668
-4.05445
-3.29177
2.11836
1.02677
3.30241
3.64245
7.02558
3.8606
4.51981
-10.3864
-11.2108
1.20314
1.37369
1.17523
1.4072
-2.6924
13.2047
12.4588
11.6264
1.71488
1.81854
1.93893
1.89792
2.04389
1.04661
3.01784
3.19026
-3.57759
-3.41359
-3.02207
-2.13959
-2.39117
-2.69061
-1.3874
0.521881
-2.00198
13.4058
12.462
11.3025
26.246
26.1368
5.16668
5.63747
20.1883
20.4272
-0.604619
-1.10346
-0.346241
21.8938
22.2599
8.07771
7.40184
23.1413
18.8899
-6.28995
7.44175
3.91162
5.67877
23.5266
4.47652
-21.6885
-6.63742
-15.7429
-1.0978
23.0515
-4.95806
-11.9681
22.0929
-20.3234
-4.27763
-4.48551
4.7304
4.80847
4.07244
0.0915081
-0.464208
7.2104
-3.06358
-3.36024
-8.48801
5.57187
5.02971
-3.65078
-2.83924
-2.50267
-0.341686
0.561394
0.242451
20.8695
4.0412
4.72477
-1.91353
24.6509
19.697
19.3171
23.6957
-17.5023
4.51212
-13.0336
-11.3297
24.0007
1.1128
-0.0392811
3.09589
24.0406
-11.7961
-11.5279
4.84892
-2.18041
-1.41957
-2.80684
-1.03381
-2.98762
3.18685
14.474
-9.99914
3.97478
21.2342
21.2341
1.79489
1.67461
-9.98399
-1.63811
22.7474
-6.0734
-8.81119
-0.772622
0.230829
4.06343
-31.9967
-2.83572
-0.553582
3.09008
19.3342
19.4139
6.21797
-4.89031
-5.15947
-5.85174
-31.011
0.934623
-8.25442
-8.08166
22.8771
1.65512
1.27373
23.1267
22.9466
-10.2995
-10.4536
0.915743
-11.9273
21.0098
0.0104873
-0.530401
2.45475
-5.47967
15.2545
0.532512
0.25128
-9.01191
-2.75345
-1.91266
-7.77037
25.5026
18.0417
-9.20002
5.95615
5.55169
18.9846
19.3188
-3.21773
-2.90243
-13.0835
-23.3583
-4.27444
-7.94077
-8.50854
22.277
-2.30038
-11.4059
26.9723
-16.8836
2.33091
-4.52519
-4.65052
3.40924
3.34504
-0.0559577
17.0687
4.39177
-21.4279
-13.744
-13.9416
3.20707
-10.6428
-2.67904
0.215786
-14.2537
-14.6581
6.61518
17.5687
24.9836
-2.7883
2.30018
2.55513
18.4491
18.2923
-0.932364
7.82131
-0.67113
-0.54371
-4.95082
3.81342
1.31617
0.974503
7.99208
9.23391
20.7559
22.8188
23.0292
22.9954
-1.91902
-1.38257
-9.18657
19.1211
19.3421
14.2516
1.32916
17.5906
23.3884
15.7061
15.0023
-5.88225
2.28014
-1.11599
17.0821
16.927
-3.73837
1.57415
-11.5396
4.62081
-12.0027
5.2908
5.21895
22.0754
1.85555
-16.2903
1.32846
-11.22
-0.0253687
0.89532
18.3102
17.1372
17.0642
4.63413
4.46645
2.52155
-8.86853
-8.97359
18.2936
2.44945
2.12876
1.82109
0.505538
0.147719
3.15402
-7.47559
-8.26478
-20.8658
-2.5422
-1.85122
-2.04962
8.06587
7.84117
5.85386
6.12165
-2.36471
-2.79857
-12.0063
4.07737
-1.74656
-2.02653
-12.346
6.94685
-20.9525
17.0694
-11.4033
-11.1163
-18.8583
4.28781
-12.0327
2.00469
2.32932
-9.89107
-8.32202
0.984651
17.5569
-16.5531
4.86985
5.26782
-11.76
15.8382
-9.04038
24.8597
2.91973
3.40082
4.25358
2.7683
3.2452
0.942884
1.13794
2.24443
3.70357
-14.9786
-13.8851
6.30436
2.76419
2.00592
0.838956
-0.982977
-1.30844
2.29531
-6.19129
-7.18123
5.12965
4.82294
-3.15792
-11.0121
-11.339
3.03927
3.26494
24.6067
-6.11702
-5.5978
-1.29255
22.2586
-1.71282
-1.41562
-4.71218
-4.29918
1.63734
2.18607
2.95516
19.3749
20.1972
-11.1139
-3.57366
2.43401
-11.0647
-10.8607
-11.2243
21.4348
21.0976
-12.5915
2.74002
-15.9317
-16.2568
6.30145
5.92413
-12.0601
-11.8408
-12.0589
17.7464
18.0974
-3.96344
-11.8322
-2.72532
5.24136
-7.40556
-7.63598
19.1294
-9.24869
-6.15786
-7.73878
5.14482
23.5359
0.302223
-0.326754
2.95307
2.3258
-16.8062
-9.52471
-8.9773
-7.62192
-6.85966
2.72989
2.71383
2.59617
-13.4677
-12.6202
19.8075
-3.35065
-3.24264
2.32618
-7.90011
-7.56103
-2.94795
-2.46199
2.49512
18.0303
17.8259
-13.896
-12.8644
4.17279
4.52103
4.45762
5.11458
5.60823
17.8819
6.49848
26.535
-8.60122
-8.96874
-8.52753
-8.42906
-7.01657
-8.60135
-11.7861
-11.8349
-0.292953
-0.168166
-0.512841
0.536537
-1.05271
-4.40137
-4.74703
23.2331
20.3253
-9.98354
1.26942
1.11651
0.808579
14.8718
0.603356
2.28597
2.54663
1.30203
1.54043
1.67417
2.58729
3.23224
19.3254
18.8143
18.8507
19.123
-2.06887
-2.632
20.3057
3.31793
3.27931
3.49191
0.300904
2.71375
18.4867
-4.10655
-3.45308
19.1557
19.7355
19.8547
0.812196
-1.28656
-1.24233
0.113098
1.76513
2.15175
-0.91578
3.45177
18.3506
18.4361
18.0354
-5.81325
-6.30941
-5.69431
1.33472
18.5775
4.7816
4.11653
-0.587576
22.7283
7.68626
7.50209
7.7005
-7.93074
19.5005
-12.4061
18.8498
19.0564
24.3912
25.8341
2.62155
-3.09247
2.85099
-3.48202
-3.18579
0.429003
16.6546
0.780781
4.76343
-17.0104
0.427265
0.748173
0.948517
19.0346
2.64692
2.66895
2.70952
4.18154
4.86422
24.0554
18.4639
18.7548
-0.632272
-0.365508
-0.0128114
24.9913
22.7147
3.42288
19.8422
20.3059
20.0271
19.2068
18.7155
19.0255
2.35316
20.0272
20.2794
-12.1293
24.387
4.06197
4.35813
0.535862
0.576399
4.94753
0.0983061
0.632324
0.203857
2.59557
2.51039
-9.45157
1.65906
1.92265
1.99326
0.851033
1.29991
8.14872
2.69133
6.4401
-1.97207
21.4403
22.9613
-0.314828
24.6008
-8.91627
4.21599
17.4789
-4.09066
18.6609
19.0545
15.2272
15.1769
1.92662
1.2594
-1.54234
-1.41598
-1.61477
0.0501669
0.402788
0.162039
6.79471
6.58415
21.59
22.1449
24.8385
-0.605944
-5.83131
2.99557
3.21216
3.17064
3.62694
3.90751
17.3091
17.2285
1.53467
1.48497
-0.31603
0.514143
0.330411
-0.0631941
19.6902
0.381314
2.0856
2.37056
2.66857
2.16277
-14.0981
-14.6404
-14.1218
24.8829
18.7711
18.0023
19.067
19.7511
6.19284
6.3997
21.2034
2.257
2.44537
6.16948
-10.1779
-10.1004
-8.98914
18.8398
18.8645
18.6004
-9.5825
-9.81842
0.464735
-12.4562
21.5778
21.5704
13.944
13.8177
2.77437
2.95146
2.62245
2.49037
5.11399
4.89541
15.0792
-10.639
-11.1649
-11.8057
3.46066
3.10944
25.8489
20.1664
19.9913
-3.54549
-3.74811
25.2011
25.6276
26.1495
23.1136
23.1504
-2.31627
-2.68085
-15.667
-14.0496
-17.5831
-11.6926
22.8338
-7.61445
-7.98451
-8.08254
-10.6124
-10.3251
-10.1505
-9.18037
25.3226
25.4319
26.3483
26.1983
25.0479
25.311
19.6762
19.3398
23.5321
-5.72241
23.9708
2.25282
2.07189
2.24315
3.29936
3.27791
2.88784
1.25938
1.46378
1.7619
2.31992
5.61479
-9.93905
-9.95784
-9.30606
17.9747
17.434
17.971
1.21612
1.19898
0.829434
2.39472
2.52471
2.74533
8.06719
3.63354
3.78489
3.79004
-0.624374
-0.285653
-12.2318
3.51795
2.99066
3.05095
25.3756
25.1895
2.76237
2.77849
2.9761
3.27449
-8.75269
2.17979
1.98683
1.43193
2.02973
2.41446
2.48815
2.32192
-1.42305
-1.36884
-1.55538
-2.70765
-7.56498
-11.8529
-11.7867
-11.7208
-11.6988
18.6659
17.9068
1.03707
1.79074
4.45167
3.67611
-15.0196
8.2796
-9.18189
-10.0397
-6.1816
25.637
-11.4515
-11.9966
4.32283
5.13526
3.56437
1.16696
1.32051
26.3241
-5.7752
-5.84378
-5.02781
-8.37549
-8.73807
-8.44577
-10.5313
-10.6428
-10.5806
-3.7875
-4.13839
19.2195
18.7503
0.853525
0.676327
1.35065
25.5793
20.7437
27.2858
14.1213
-12.0222
-12.2954
-11.1297
-12.045
-14.4968
19.2629
18.7729
18.6021
-8.38449
-7.50102
-8.22067
-7.56933
-11.4063
-11.1533
-11.4328
-11.4863
22.7782
23.1073
22.6904
22.6668
-8.93395
-7.96962
-8.64438
-8.27568
16.182
-5.13881
2.73645
2.60491
2.3615
2.66427
-1.20613
-0.729089
-1.02388
-9.49901
-10.7367
-10.1533
-10.8101
1.0634
1.41913
1.88592
2.54055
2.6266
2.3852
1.99742
1.64633
19.1443
19.7107
19.0024
18.4425
2.60606
2.43914
2.41456
2.45078
-9.42495
-9.79632
-10.0102
-3.33526
-4.0656
3.4938
3.98907
3.39377
-13.3215
-13.8997
-0.837822
-0.687721
1.38224
1.89318
0.844587
1.43963
1.01176
0.455296
0.963254
-6.72069
-7.13725
-6.63931
-7.01849
-6.38397
-6.22681
16.3666
16.7607
-0.243864
18.6445
18.6699
21.3604
1.24812
1.53432
1.83894
1.6003
20.4756
-2.38242
-1.69465
-1.48299
-0.66108
2.79111
2.43928
17.5557
17.8758
17.1994
17.4987
-2.49015
-2.09046
-2.81595
-6.60465
-7.22088
-7.29669
18.8964
18.5197
19.7232
19.5122
-7.96346
5.13377
16.2756
-6.03326
-6.34945
-4.99854
-5.97204
-22.5322
6.04595
-22.2473
-21.9616
3.94732
4.20833
3.58021
3.74699
-1.79065
18.6406
19.0405
3.63293
3.59663
3.84718
-0.0445655
-0.357264
-11.8833
-11.897
-11.8322
-8.99955
-8.66822
-8.90213
-8.46761
21.2864
5.90675
5.82654
-4.65787
-5.04799
18.0838
18.2958
17.9885
22.4444
-3.91139
4.82703
-0.234836
-0.506711
-0.30567
1.2636
-7.65199
-7.98649
-7.23203
1.63986
1.75031
1.39842
19.256
19.4118
2.90981
2.52064
-7.77492
-7.46385
-8.29989
5.31468
5.04303
5.28848
-6.34049
-6.58754
-6.22459
-6.79848
-7.11401
18.3829
17.8852
18.1691
-3.17768
16.3297
15.9344
-1.05521
-1.17985
0.0761
2.30637
1.6282
-12.2665
-12.2665
4.12549
3.85075
20.5458
19.9084
4.54733
4.27574
3.23949
2.84108
1.94887
1.97791
1.42404
1.44725
1.86071
1.86049
18.2889
18.0815
1.0833
0.61486
-0.0160819
0.42044
-0.499727
19.2664
19.0405
18.8736
22.8557
22.9719
22.62
22.979
19.8162
18.851
18.8496
18.6505
0.411896
-0.0517817
20.7647
21.0349
3.41919
3.68523
4.01341
4.00344
3.84544
-12.1514
-12.0978
-12.0371
-11.9295
22.1238
2.9768
2.81811
21.0429
20.7657
20.3695
20.9351
0.302058
0.201127
-0.129647
-5.10147
-5.37445
-4.92402
2.04812
2.5269
1.58222
19.8585
20.0409
18.9471
19.0728
-3.04641
-2.70626
-2.37439
14.9001
-13.642
-13.3081
-12.828
0.683019
-5.97471
-6.85538
-6.22149
-6.42918
-0.488208
-0.780245
0.0954015
-0.33845
3.19984
-10.8189
-10.7938
-10.1075
-10.5758
2.80117
2.70612
2.47892
2.35064
2.17354
2.15863
2.41828
2.18155
1.89247
23.4638
18.7606
18.8066
-12.1874
-12.1599
27.7537
-5.52019
0.858622
0.388906
-0.243051
-0.111841
-0.663205
-1.26975
-0.644546
-11.7992
-11.2906
-23.0498
-22.3062
16.8292
17.3224
17.4389
17.5894
4.81904
3.0725
2.82023
3.13772
-23.8638
17.8134
17.9064
17.193
17.4063
-7.27173
-7.1037
-6.49
-5.83402
1.35991
1.40655
1.30426
4.80167
-9.02809
-8.73739
-9.24974
-9.28667
-12.0736
-11.5744
-12.1102
4.42209
4.28334
5.30024
20.1143
19.6246
19.4015
19.401
9.19307
9.13095
-2.33649
-1.33289
-0.579647
-0.658323
20.7876
19.7762
19.4934
-6.81608
-13.0913
-14.4417
20.667
20.4409
5.00928
4.99413
5.11141
2.6491
2.62826
2.7981
-9.92568
-10.0232
-9.81282
16.8586
16.4023
16.7572
17.4031
22.8026
19.4972
19.9407
19.4322
19.6572
-4.23237
-8.78614
-5.07808
-5.53751
-0.69103
-0.842251
0.453535
0.5701
3.27156
2.755
2.6378
2.55863
2.98679
-0.299717
0.992038
0.286624
21.3245
3.61786
3.49511
3.58366
-0.574154
0.0681778
-9.18405
-9.26675
-9.18227
-11.0731
-10.3814
-11.0086
5.96147
23.383
4.6557
22.0626
22.1441
2.63927
2.15616
2.71633
-4.87023
-4.73999
-5.11715
0.961357
-11.3528
-11.7019
-11.5435
20.1761
20.5755
1.9428
1.63794
1.44077
1.7133
4.42943
4.48743
22.0667
22.1191
1.91881
1.63784
2.16104
2.02501
2.45751
2.77437
19.8363
4.55284
4.68441
4.48537
-0.73191
-0.301236
-0.700264
-19.7963
-7.56809
-8.25079
-8.51324
-7.8964
19.7196
19.0644
18.8472
19.3011
-4.14588
-5.06078
-4.52072
-12.4671
-13.5988
-16.9532
-13.9675
-16.8258
0.6274
0.482235
-1.21576
-0.94081
-5.03894
-5.66415
-4.94705
-4.23493
3.94709
3.75675
3.00239
3.36315
21.2514
15.9107
15.5006
16.0383
-6.18413
-5.6705
-6.15277
-6.37869
-11.7126
-10.3552
-10.595
-10.3606
-9.70948
-5.02838
-4.5254
-4.72909
-3.71071
16.355
16.5174
0.45381
0.393155
-9.45486
-9.94169
-10.0585
-10.0418
1.50878
-5.61918
-5.22457
-5.43518
-5.22991
2.27588
2.48832
2.42578
23.1355
18.2816
-9.21996
-8.68689
-8.68726
-8.17447
1.8662
2.10055
-10.8444
-10.7073
3.90189
19.4151
2.31537
2.08542
1.09584
-4.40953
5.5636
5.49529
5.37899
-5.638
-5.65132
20.3388
-11.1223
-12.3799
-11.8292
-14.5917
0.48034
0.836615
0.54893
21.869
21.8206
25.9339
-3.64821
20.6852
2.54409
2.66454
2.1116
2.44922
0.125897
0.47465
1.42026
1.32162
2.59606
2.62237
2.73376
2.69209
-8.33535
-7.66851
-7.22862
-7.96418
2.28414
2.36148
3.75223
2.80588
-5.69015
-5.1594
-6.1125
-10.8326
23.5425
-6.12214
-11.5288
-11.045
1.02147
0.984768
20.7921
-13.0761
2.69544
3.08782
2.81363
21.1662
0.322534
-0.0493624
0.439312
1.05374
3.62841
1.32715
1.04714
2.08587
2.36795
22.0552
22.1883
21.5106
21.7962
2.31974
2.41668
2.51912
2.04777
0.0921189
-0.203407
-0.492563
-0.094899
4.06289
4.49029
4.71891
4.41767
20.1422
20.0602
19.1436
19.508
19.077
19.3405
-8.87376
-7.94646
-9.12421
-9.56034
0.0820241
-0.0439817
-0.368086
6.45466
-11.9915
-12.0587
-11.822
-12.2624
-11.9897
-11.0453
-12.7511
-13.1243
-13.6812
-14.0034
-13.1709
2.44387
1.92582
25.9453
19.466
19.0475
18.8649
18.5152
-15.2005
-14.3831
-14.0477
0.397285
-4.09873
-4.33128
-4.06919
-11.4543
-11.5624
2.17216
-11.0102
-11.0438
-2.20484
-2.67263
-3.0159
-10.0671
-8.89584
-8.82253
-9.67803
-12.0517
-12.0955
-11.9588
7.71014
6.74643
-7.01461
-6.24841
-6.63475
25.9563
-9.15031
-8.59755
1.15026
1.24362
0.586268
1.64254
1.47579
1.71497
-11.3499
-10.1911
21.4346
21.6375
0.665378
1.17765
19.0463
19.3252
19.3356
19.6948
-6.03723
-10.9398
-10.941
5.10419
5.24584
4.55411
5.13072
1.13351
1.12681
1.47836
1.2351
0.908867
1.00269
1.37361
1.17216
-0.148358
-0.0582496
-0.204311
-10.0733
-9.87087
-9.04103
-9.57012
-10.3459
-10.5879
13.1976
-7.98685
-7.89882
-7.90654
6.10952
20.3825
20.6918
20.5413
-0.470705
-0.617034
0.600474
0.74904
0.70486
1.1072
-10.1579
-9.51132
2.05065
2.22974
1.72171
2.02049
1.55101
2.01234
2.06674
2.36884
19.6364
19.5029
20.2872
20.228
-12.0051
-12.0055
-11.9531
20.8082
20.5178
19.9347
20.3295
4.97826
5.04122
4.73635
19.1057
2.36745
1.97346
2.02548
1.95793
-15.4498
-15.5516
-19.3062
24.9774
-3.60365
25.1733
25.3595
25.4232
23.4454
-14.0218
26.1014
26.4884
26.5619
25.9673
25.9831
23.3459
25.7445
25.7743
24.9772
25.0183
-11.7403
24.9516
24.8944
0.524946
24.2965
-6.46596
24.5079
23.614
23.6235
-6.43639
26.7182
1.2406
24.7848
26.6369
26.5581
21.8492
-1.32732
-0.02292
23.9745
23.8036
-14.9525
25.1539
1.07603
2.15962
-1.31379
6.03583
7.04604
-6.76162
25.6578
25.6521
25.8905
25.8394
25.7918
-13.5477
-14.029
25.4336
-13.4656
27.0023
26.8861
23.0357
27.1744
-4.09662
-15.4078
0.483677
0.608797
26.003
-17.6636
-18.0809
24.6084
-22.3611
23.2591
23.3825
23.3285
2.4251
2.28849
25.4192
-0.877492
1.39818
1.61044
-18.0831
25.6444
25.7902
25.5994
4.14247
24.1917
25.086
25.6843
24.4182
23.2375
2.7451
26.8289
19.6527
19.6917
0.64289
6.96658
25.4405
17.9353
23.3478
25.2163
2.27125
22.4838
25.4432
23.4047
23.4485
25.2955
24.5478
24.4861
23.8991
24.2751
24.1811
23.9086
23.7574
23.4448
20.6865
24.1194
21.8391
0.847133
24.539
11.5926
23.5262
-1.346
27.5073
23.7835
23.9376
23.9963
6.02807
23.6063
23.4415
-25.1485
25.7859
25.799
26.8837
-0.618447
-0.711303
-19.3392
24.025
-23.8387
-23.0417
27.4097
20.1749
20.3611
-1.4482
21.5533
0.182136
0.121376
18.6079
25.4638
23.423
-0.734935
-1.23755
23.5288
22.5934
3.63555
23.317
25.1119
25.6501
21.1464
25.4953
24.0294
-10.2245
-10.4431
-10.0183
25.4789
26.323
-12.2353
-12.2924
3.99449
3.78156
-12.5741
-9.81993
-9.38463
0.509373
24.9334
24.6055
-5.41841
1.41539
26.4516
26.2898
26.6235
25.282
25.2085
26.2348
26.0123
24.1588
25.3114
26.0209
25.7966
24.6167
24.5434
23.8883
23.8821
4.66958
25.6637
25.3256
23.5845
27.9771
27.6151
22.0945
25.6791
21.6197
21.9496
23.5865
23.5162
26.4797
24.6003
24.7145
24.5161
1.74116
25.2892
0.390134
0.264643
0.263386
-12.6699
-1.96346
24.3477
-15.2745
26.801
2.29711
21.7132
25.5466
23.0187
22.867
22.9309
24.9027
24.1029
1.06038
11.3314
10.3322
25.406
25.6767
-0.610511
1.56445
-3.90208
-3.62004
23.8272
25.1102
0.331127
21.2793
21.8036
27.71
23.4972
-20.885
8.1879
7.52565
25.9603
-3.6692
22.9195
22.7059
22.7424
25.5919
-7.42351
-8.66851
-8.49914
17.2419
23.5492
-0.719006
-1.08037
3.88084
0.112892
-19.0113
21.4411
21.9401
1.52816
0.77087
0.608512
22.9353
1.81611
25.7562
25.7022
25.0395
23.2106
-21.9747
23.0578
23.0934
23.1573
23.227
25.2806
27.4213
27.5076
-2.4228
-5.88186
21.9627
8.97033
3.36865
3.38599
21.4652
-0.061015
-0.20353
-3.39075
-3.83571
25.4293
-22.0448
-0.452462
-0.904571
26.009
26.1411
23.0535
22.8295
0.728655
0.541223
-0.538054
-0.831326
22.9315
-7.8327
-7.50479
1.04403
23.3393
23.2966
7.95207
23.9199
23.4921
25.313
24.5667
22.5064
26.2595
-2.31844
22.4215
22.2133
-16.0399
4.51512
22.5343
-16.0882
8.17198
8.88151
8.03737
-16.0881
1.65696
5.12935
-4.99473
22.1192
25.3774
23.3642
26.2048
26.0515
-2.17528
23.385
23.4155
23.1613
-5.24517
-8.14407
-6.69078
23.0469
21.2967
21.1125
0.212428
0.455069
-12.8623
21.9421
21.8663
22.2333
21.6753
-1.00837
-1.69909
3.58836
3.26004
-1.4551
-1.27385
1.37084
25.2281
25.2863
2.51437
24.514
-6.81547
-0.868932
-0.730805
-0.458682
-11.2505
-10.7575
-10.9855
0.135309
-4.30905
-4.9099
2.34054
1.52083
1.61104
0.307873
2.96053
-3.44633
-3.11287
24.5487
24.5202
0.451
23.9769
-10.4942
-10.8032
-9.42753
-2.41142
25.534
19.0603
25.2754
10.5075
25.0635
23.2896
23.1382
0.988839
0.992636
1.16726
23.507
23.4468
24.9333
1.02873
24.9437
10.7807
20.9145
20.8897
20.426
0.414655
-0.890907
-8.71572
-8.98171
-4.77326
-5.33119
27.0409
26.9915
1.47251
24.5523
26.451
24.8223
-0.337385
-0.797112
0.795606
-5.53923
0.700544
1.711
1.57089
24.5732
23.0183
2.6727
2.56651
1.99158
2.39277
-5.10303
-3.87835
3.56432
3.56782
8.31897
9.12879
25.6569
0.772855
0.40842
-2.18061
0.246929
0.31483
0.317208
-0.866734
-0.499216
0.730206
0.64292
0.412323
-1.03144
22.6654
22.4815
21.4694
-7.67859
-7.19362
-7.92988
-1.15116
-1.287
-6.50658
-9.51783
-9.84132
-2.19145
-1.74678
-3.40094
-3.55508
21.3194
20.0235
27.8524
27.3079
3.81562
-5.53199
-5.76553
-5.71674
-0.0340816
27.5382
27.4244
-2.0416
-1.56408
24.96
24.4736
25.9898
25.8548
25.2203
20.6821
20.8753
20.5514
1.01324
0.898687
24.7016
24.909
24.8656
25.1302
25.103
7.69743
8.98252
-8.77711
-7.84891
-11.4033
1.69064
-8.69145
-8.134
-4.29065
-4.93083
-5.15744
-6.64868
-6.4656
-5.93138
-6.27428
24.511
24.385
0.621599
0.710366
-0.897557
-6.23334
22.3952
24.8422
22.4291
24.8413
25.6194
25.8278
25.7551
25.2646
-6.81545
-2.00725
-2.6172
-3.29508
-3.08421
-2.32867
-2.17861
-12.0706
-12.4536
21.8372
7.06324
25.2298
25.0703
7.65742
24.0789
-9.61228
0.0056093
24.2196
24.0265
-0.723891
-0.718422
22.2995
-6.36752
-6.27058
25.241
-8.49674
-7.88858
-3.90638
20.5226
20.5505
-1.25622
22.8864
27.9007
20.5706
20.5717
20.4143
20.3261
20.0941
1.08535
1.17352
1.05937
-5.35655
-1.25647
-1.06468
2.02549
1.64875
2.75773
2.54748
2.67564
21.3519
20.9823
21.0752
-3.28553
-0.35973
24.5954
0.971898
0.978317
1.01618
1.79996
-10.8625
18.9989
19.6081
19.276
19.9203
-3.28368
20.2908
20.1393
21.646
21.2615
20.72
4.98006
15.9079
15.417
14.9341
23.6721
23.5697
-2.95789
-3.2148
-1.2256
-0.74475
3.10818
-5.56557
2.26189
23.4184
25.4415
25.3846
1.99037
22.8696
0.375778
-17.3244
20.975
20.8783
20.6968
20.3396
20.4835
4.87419
-5.28575
-5.09563
-5.16985
-0.387083
23.4478
27.8428
27.4857
0.549518
0.786158
3.3084
3.52827
20.1257
-0.707497
-1.31383
24.2953
24.2951
22.6894
22.7831
22.5621
-0.80191
24.166
24.1493
0.954103
0.204552
20.0891
22.6304
22.5826
22.2853
1.03664
2.70404
2.35443
21.5777
3.18425
20.7247
26.5756
21.8114
21.9708
22.5683
-0.73477
26.3818
-3.64826
25.3396
22.7923
22.8786
25.5623
25.5968
25.6079
25.2818
26.2839
1.85254
23.082
23.2191
-9.86051
21.094
1.77464
1.08266
1.21313
1.11428
1.26168
-0.988842
2.35488
2.27096
-0.0757909
-0.450944
-0.698947
22.1643
22.0607
-1.59585
-1.82725
-5.70419
-6.02468
-6.12421
-2.02212
-1.88958
1.6427
1.70291
-3.82464
9.90586
10.875
19.9367
19.8807
2.04318
2.25766
-4.96111
1.17025
0.731478
0.872929
0.848708
22.3711
5.5334
18.1997
17.7388
-2.67149
22.0502
-14.6958
25.1769
0.184734
-0.498569
2.57576
2.75533
-4.27347
-4.32983
-4.07676
27.4661
15.6628
16.3734
16.9568
1.76802
1.53244
1.36886
23.3041
20.7725
20.156
20.0533
20.0513
2.9163
2.62776
2.60206
-6.27916
21.2275
21.2596
21.3531
20.0509
19.9056
25.5594
1.40206
1.70135
1.42647
-8.10283
-7.9861
-9.69899
-8.93492
2.90515
3.08036
20.2204
19.7053
3.14991
3.22507
20.5968
20.2135
20.2962
-3.57192
-3.21411
1.1735
1.07228
21.8064
21.882
0.311953
-9.48915
-9.97264
1.96188
1.74546
2.12308
-8.27303
-8.74065
0.821325
0.771084
20.0043
20.3636
19.8782
-7.76276
-7.76528
0.247475
0.48911
0.111848
-2.92254
-2.74078
-11.2778
-11.5351
25.5682
1.76789
1.63088
-12.793
4.91948
5.27825
23.4821
21.1829
20.7393
21.2169
21.337
23.311
1.60648
0.403505
0.0916558
0.739191
0.928272
24.3798
3.72675
-0.109943
-15.0027
13.4838
14.0168
-7.84521
-7.53799
24.8907
-1.21572
5.55367
5.57422
4.12995
-11.1283
19.3278
18.6544
-9.801
20.5677
20.2316
22.2675
19.5995
19.9535
-1.40184
-5.09216
-5.21164
3.44175
19.2438
19.4481
19.4507
19.8459
20.3294
20.4793
21.9404
22.0349
-2.69043
22.2789
22.1716
18.6891
19.5766
19.5726
25.0684
25.1237
2.14084
2.08943
1.9956
0.754092
0.178712
21.4132
21.8631
21.5676
25.5507
-9.76779
2.47422
2.47888
2.90866
3.01242
23.5242
4.09553
3.47887
3.61509
-4.8529
-3.50648
-2.36353
-5.28284
-5.4707
-0.0459141
0.0494744
-4.8807
-4.26093
-10.813
-10.3709
-10.7163
0.992096
18.185
18.7081
-0.450126
-0.553545
-0.076065
20.3673
20.0824
19.9417
-1.28378
-1.18018
-1.43092
-10.6826
-22.278
5.10186
5.26652
-10.9222
-10.6062
1.52341
1.85869
20.2033
-10.0757
-10.0945
2.93156
2.83098
0.558366
0.601441
6.40924
7.01992
8.03106
21.5852
21.5151
-11.7013
20.0668
20.2339
1.78736
0.831112
1.25046
1.40135
0.786097
-5.32756
-3.22996
-4.27749
7.6357
8.44821
9.8625
9.34596
21.737
22.1052
-1.4105
-1.51815
1.59447
1.78066
23.3016
25.5029
19.8571
19.7628
23.173
-5.86799
-5.20767
-5.34872
0.0905085
24.7612
17.4268
17.5426
3.2654
3.13873
21.3861
21.3943
-10.161
-10.2313
1.9706
1.36692
1.12147
21.9753
22.1273
4.31511
4.73638
21.2624
21.349
22.9248
22.7691
-19.7258
0.114056
2.67269
2.58952
-3.16084
-5.23538
26.9681
-13.2067
-3.05519
-7.98373
-8.27584
-2.80805
-2.11897
-4.29175
-4.31035
-0.55511
-0.480436
-0.93783
2.7593
2.9958
0.276261
0.803313
0.578699
27.5137
26.698
25.6362
22.3442
22.4275
21.9141
22.3639
1.33033
1.8497
1.37184
-4.18869
-4.16157
2.55017
0.697588
0.541271
0.590064
-3.40404
-3.32291
14.633
22.0462
8.41674
20.7032
20.3442
-13.7163
8.15519
-0.528003
9.23896
-21.9855
12.5335
-12.0071
-14.3714
-11.7822
5.17347
5.52349
8.4104
6.51666
-11.6586
-12.0588
-8.59764
7.97489
9.11775
9.27117
13.0053
15.3863
-4.17999
-7.29466
7.22791
4.73789
8.59631
3.5695
-12.0123
-12.1462
11.5385
12.8446
3.85035
-16.0141
-19.1534
-9.64646
13.3891
-8.15067
3.29094
11.4398
11.7165
6.41029
6.46858
-5.55799
-6.07903
-9.00344
-12.6578
-12.3988
1.73202
-0.403611
13.4237
13.6616
3.66043
3.12089
14.6519
-9.6583
13.0189
12.0256
1.00182
-1.58968
12.543
6.33332
11.5536
2.6862
15.6232
21.9586
5.88144
9.79072
7.56061
3.36344
9.85569
4.4422
4.75199
7.47564
7.37679
-14.6988
-14.7894
1.72499
-4.26269
-21.1999
6.20864
-4.19171
-8.68595
16.011
0.808446
12.3525
0.325665
-0.478194
-12.1573
-11.968
-7.19915
-8.36137
0.827219
-12.0592
-11.9332
5.4763
-1.11967
-2.23281
-1.01309
0.664807
1.75924
18.4029
-8.29012
-1.51624
-0.807626
-15.5147
22.8532
-3.9519
-27.0897
-20.5523
-22.9028
3.5934
-11.4412
-12.7662
11.644
10.5778
-7.60288
10.3731
-11.7075
-8.25378
1.04339
0.982006
1.28491
0.993027
-11.2867
1.13756
4.13637
-3.55343
11.629
0.423868
-0.52128
-15.5907
17.0338
7.61225
10.5108
7.39429
7.23173
-18.6535
-12.0424
10.7065
-15.5427
-5.54438
14.3575
14.7264
11.6692
12.8071
-12.3142
4.44279
2.59893
1.85155
11.0802
10.7743
8.7386
8.1657
8.85902
5.00396
11.9244
6.68547
-3.37838
-0.746297
0.5736
-0.587015
-17.9708
17.9992
-2.58153
4.32351
4.58343
-12.1618
-12.9812
23.4368
-15.5549
-16.9096
18.9875
13.5688
-4.81087
2.99155
-3.17946
-4.20167
4.90469
12.818
1.12251
-12.9867
2.50681
1.40345
2.37916
3.14461
18.0296
17.9816
-13.1038
1.30409
-4.15785
-3.78613
2.82325
-6.37556
-11.23
12.1814
0.746177
1.42902
14.6267
14.4421
7.69896
8.14569
2.54527
2.99668
0.389479
-0.221281
-0.512706
16.6595
-4.01113
18.4054
18.0185
18.7838
-6.89611
-7.42745
-8.46356
6.67648
-5.7906
14.5689
-5.47107
-4.45263
-5.7532
5.10867
-23.6277
-7.01929
10.3667
11.197
10.7873
14.0443
13.152
13.1817
10.2301
10.1972
-12.7458
7.00292
12.127
11.4941
-5.30423
-26.3265
10.9473
-22.6245
-18.0042
3.66617
4.32159
5.28167
5.78572
-15.5822
2.69092
3.28066
4.05608
12.355
11.4171
1.80581
-1.54556
-2.04087
-0.175991
0.3945
-13.9318
-12.7742
2.73981
1.88872
13.5308
11.7347
11.2742
4.82312
5.4684
9.71592
8.6353
6.61932
9.45787
8.9824
8.19781
8.42364
8.7014
10.8246
3.39277
3.23082
3.16716
-3.19643
15.0307
8.05735
8.57059
12.9517
-4.16731
17.4926
0.958437
1.1409
-12.9686
-1.47987
-0.806238
-1.52398
-11.4898
-11.206
-0.128516
3.90239
3.28521
-1.69587
-0.746547
18.3215
9.30372
3.11709
3.85072
-3.16582
-15.3005
7.8677
16.0315
16.1374
9.62215
9.36026
-0.200016
-0.121304
-0.661823
0.148553
0.649419
5.27479
13.4238
12.4128
4.92933
17.3105
17.8032
17.8785
13.9874
14.2883
6.15083
12.9912
4.88713
5.35706
-2.49522
-1.51425
12.465
11.4488
2.99937
3.65685
9.57707
10.2806
-5.49056
2.0276
1.92653
2.12001
5.85487
-12.8647
-7.91317
5.31458
5.94882
-1.72362
-1.33394
-2.40651
6.83711
13.2805
13.0089
22.7107
22.7679
22.9369
10.277