/*--------------------------------*- C++ -*----------------------------------*\
  =========                 |
  \\      /  F ield         | OpenFOAM: The Open Source CFD Toolbox
   \\    /   O peration     | Website:  https://openfoam.org
    \\  /    A nd           | Version:  6
     \\/     M anipulation  |
\*---------------------------------------------------------------------------*/
FoamFile
{
    version     2.0;
    format      ascii;
    class       surfaceScalarField;
    location    "700";
    object      phi;
}
// * * * * * * * * * * * * * * * * * * * * * * * * * * * * * * * * * * * * * //

dimensions      [0 3 -1 0 0 0 0];

internalField   nonuniform List<scalar> 
44611
(
1.52498
-2.14826
0.623284
1.52498
1.44619
-1.44619
1.9397
-0.493515
-1.31914
-0.707603
2.02674
-1.31914
-0.0923949
-2.1766
2.0917
-0.56672
1.29624
-1.29625
0.180672
1.85444
-2.17633
0.730137
2.37681
-0.340684
0.413145
-1.73228
-0.79755
-1.20175
0.79755
1.29415
-0.553051
-1.33793
0.553051
0.743193
-0.594739
-0.82438
0.824381
-1.17127
1.35195
-0.0100729
1.2895
-1.27942
-0.137326
-1.86402
2.00135
1.52567
-0.216084
-1.30958
1.22054
-1.22054
-1.10285
1.10285
-1.51129
1.51129
-1.19395
1.19395
1.50504
0.0206269
-1.92044
0.409148
-0.92041
-0.786069
1.70648
-1.62801
-1.26887
1.26887
0.124778
-1.42373
1.29895
-1.49302
1.49302
-1.28007
-0.221418
1.50148
-1.37253
1.37253
1.65449
-0.143207
-0.460541
1.51002
-1.04948
1.72272
-0.502182
1.3286
-0.213945
-1.11465
-0.701541
1.10059
-0.399051
1.1881
-1.46044
0.272344
-0.881024
0.881024
-1.14571
1.03941
0.106302
0.954723
-0.954723
1.19354
-1.33086
-2.28559
0.81332
-0.813319
1.01623
-1.23231
1.82955
-2.04563
-1.60936
-0.623011
-0.820591
-0.788764
-0.899325
0.899325
-1.04038
1.03031
1.92963
0.0919678
-1.4645
0.103656
-0.299069
1.21487
1.16194
1.73228
0.166027
0.5333
-1.21775
2.03834
-1.4645
-0.982086
-0.478357
1.30404
-1.30404
0.905966
-0.41994
-0.486026
1.32996
-1.14554
-0.184418
-0.800406
-0.643041
1.44345
0.000852381
-0.0784834
0.0776309
1.67814
-0.388641
-1.69812
-0.165905
-0.356793
0.90978
-0.552987
-0.03761
0.0442662
-0.0066562
-0.136182
-0.612697
0.748878
-1.16347
0.461931
0.0114023
0.0590796
-0.070482
-0.0319723
0.0072211
0.0247512
0.855702
0.212779
-1.06848
-0.00180491
0.00180495
1.4749
0.524627
0.240414
1.23449
0.798292
0.879846
-0.0225998
-0.00937251
1.23239
-0.504658
-0.72773
0.917362
0.315026
-1.07233
-0.625789
-0.264404
-0.807926
-0.982582
-0.478529
-0.910389
1.38892
0.00413594
-0.041746
-0.00858358
0.0335612
-0.0249776
-0.727406
0.852184
-0.648977
-0.287718
0.936694
-1.17485
0.953427
0.000357131
-0.000357009
0.0915282
0.818251
0.997494
0.652346
0.862334
0.467631
1.15874
-0.296405
-0.0776057
0.639411
-0.561806
-0.362997
-0.479432
0.842429
0.411701
-0.743999
0.332297
1.14024
0.859759
-0.74692
0.757784
-0.0108641
-0.793695
1.06604
-0.889031
0.199275
0.689756
-0.886385
-1.11865
-0.845307
-1.44028
1.10971
0.337432
-1.44714
0.92692
-0.0712186
-0.199514
0.745764
-0.546251
-0.957751
-1.08788
-1.43628
-0.850115
-1.11447
-1.6132
0.763089
-0.867674
1.27682
-0.346318
0.808228
-0.46191
-0.98228
0.174354
-0.41825
-0.537012
0.955262
-1.30903
0.89078
-0.266146
0.831779
-0.565633
-0.834445
-0.0759439
0.755836
-0.617248
0.830027
-0.892771
0.593702
0.048496
-0.0370936
0.0356744
-0.044258
0.597054
-0.810999
0.85009
-0.684063
-1.49506
0.683106
-0.793182
0.110076
0.811956
-0.708301
0.900009
-0.0899616
-0.810047
-1.39899
0.000941956
-0.00094196
0.000941961
1.07185
-1.07185
1.07315
-1.07315
-1.1542
1.36195
-0.207751
0.627038
-1.08159
0.454557
-0.296103
1.36925
-0.899243
0.581074
0.318169
-0.928998
0.0297547
0.829555
-0.624499
-0.205056
0.0291489
0.335219
-1.12891
-1.25715
1.25715
-0.440449
1.35781
-0.108807
-0.462257
0.00545236
0.456805
-0.151683
-0.310574
-0.640737
0.489054
0.372994
1.02534
1.40236
0.616287
-0.0217792
0.975206
-0.0780447
0.930228
-1.25084
0.358013
-0.837444
-0.282724
-0.934399
0.333144
0.601255
-1.12062
0.186221
0.0902581
-0.798773
-0.963826
-0.315597
-1.45734
-0.727204
-0.232734
1.72576
1.06622
-1.20182
1.30812
-0.0645263
-0.679473
-1.05449
1.69889
-0.644396
0.0856803
-1.41351
1.35695
1.98023
-0.863241
0.863242
-1.6486
0.785364
-0.00609907
-0.00332584
0.00942489
-0.0250133
0.0300857
-0.00507239
-0.00785297
0.00448843
0.00336454
0.0480692
-0.0571129
0.00904366
-0.00391008
-0.0041241
0.00803418
0.00405436
-0.00796444
-0.0563112
0.0120314
0.0442799
-0.593594
0.295269
0.298325
-0.0636298
0.0498062
0.0138236
0.0145674
-0.0632513
0.0486838
-0.00413466
0.00818902
-0.00560373
-0.00109115
0.00669486
0.0178677
-0.00070322
-0.0171645
-0.00199559
-0.0100428
0.0120384
0.00519069
0.0042888
-0.00947949
-0.00159128
-0.00587506
0.00746633
0.00581603
-0.00545185
-0.000364188
0.00947189
-0.00304707
-0.00642483
0.0119296
0.0140561
-0.0259858
0.0377624
-0.0258328
0.00160552
-0.00738156
0.00577603
0.00679875
-0.00519324
0.634047
-0.434772
0.0766282
-0.0409587
-0.0356697
-0.0174093
-0.0210344
0.0384437
0.027196
-0.0478962
0.0207003
-0.00354198
0.00354227
-0.00734816
0.00162342
0.00572474
0.0332708
-0.013227
-0.0200438
-0.048835
0.00915045
0.0396845
-0.0860049
0.0160914
0.0699136
0.00398228
-0.00956876
0.00558646
-0.00972778
0.0062434
0.00348436
0.092624
-0.0312737
-0.0613501
-0.00398571
0.0585618
-0.054576
0.0446522
-0.0445331
-0.000119138
0.00132303
-0.01969
0.0183669
-0.0583358
0.0150128
0.0433231
-0.0388656
0.0538352
-0.0149696
0.00324041
-0.00747683
0.00423643
-0.0057747
-0.00218975
-0.0058715
-0.00700248
0.012874
-0.0099956
-0.0366923
0.0327066
0.0269191
-0.0636114
-0.00329587
0.00910339
-0.00580752
0.0316758
0.00902837
-0.0407042
0.0188893
-0.00468468
-0.0142046
0.00285872
-0.00285854
0.00883215
-0.027993
0.0191609
-0.00830855
0.00539062
0.00291793
0.0595501
-0.0601939
0.000643903
0.0312235
0.0315895
-0.0628131
0.0564528
-0.0252292
-0.0056985
-0.00261005
-0.0198059
0.0211136
-0.00130769
-0.00747279
-0.0123331
0.00371423
-0.0107167
-0.00754558
0.00913392
-0.00158837
0.00539888
-0.00798214
0.00258325
-0.0239694
0.0385368
0.0202968
0.0106285
0.00723926
0.0178496
-0.0248767
0.0297664
-0.00488975
0.22527
-0.186171
-0.0390994
-0.007379
0.00278407
0.00459492
-0.630218
0.3425
-0.0215925
0.0141197
0.0857431
0.463067
-0.54881
0.0556781
-0.0715225
0.0158444
-0.00265776
0.00505175
0.0135508
-0.0186026
0.00126182
-0.00126181
-0.0572292
0.473452
-0.416222
0.0131442
-0.0020646
-0.0110797
0.00961042
-0.0050057
-0.00460472
0.00570159
0.00377029
0.00773984
-0.027084
0.0193441
0.0186543
-0.0223177
0.00366336
0.00942358
0.00923071
-0.0255127
0.052973
-0.0274603
0.00573891
0.00387151
-0.00254501
-0.004834
-0.0139339
-0.016134
0.0300679
0.00237697
0.00831458
-0.0106916
-0.004413
0.00657616
-0.00216318
-0.00796529
0.00355228
0.00719535
-0.000619205
0.000376243
0.0149565
-0.0153327
-0.00926973
-0.0287594
0.0380291
-0.0093904
-0.0353323
0.0447227
-0.42854
0.354304
0.0742365
-0.0338011
-0.00506449
0.0187884
0.0305772
-0.0493655
0.0161892
-0.00331522
-0.0210945
0.0199659
0.00112854
-0.0172018
-0.00389276
0.0269656
-0.017542
-0.0501979
0.0283522
0.0218457
-0.00116197
0.0074264
-0.00626445
-0.00244866
0.0522552
-0.0498064
0.0571016
0.0478217
0.00443348
-0.00143534
0.0238677
-0.0224323
0.0159826
-0.0156063
0.0145472
-0.00551118
0.0219542
-0.0164431
0.00492053
-0.0192045
0.0142839
-0.00918013
-0.00882006
0.0180002
0.00977513
0.00641407
0.000594995
-0.00240598
-0.0270161
0.0192273
0.0077888
-0.0231441
0.0250347
-0.00189054
-0.0501602
0.0442619
0.000558176
-0.00790634
-0.00408811
0.00660651
-0.00251841
-0.0274904
-0.566103
0.0534125
0.033227
-0.0866394
-0.0132364
0.00678969
0.00644675
0.0104437
-0.00701215
-0.00343155
-0.0472686
-0.0268642
0.0741329
0.319607
-0.529079
0.209471
-0.00497348
-0.00502212
-0.0876821
0.221236
-0.133553
-0.920835
0.308138
-0.00546763
0.00626305
-0.000795422
-0.00767662
0.00697339
0.0334506
0.000110594
0.0252111
0.00823953
0.0239783
0.00755208
0.0135615
0.0124726
0.00378723
0.00977428
0.000822136
-0.023422
-0.0163424
0.00651787
-0.0156717
0.00915384
-0.0153137
-0.0010287
-0.00879584
-0.0246287
0.000237297
0.0243914
-0.0386249
0.0136472
-0.245386
-0.183154
-0.0248481
-0.0387817
0.023551
0.0302842
0.0313398
-0.388375
0.492937
-0.104563
-0.510457
0.499593
0.00164248
-0.00164247
-0.00592799
0.00251747
0.00341052
-0.0769772
0.0297086
-0.00350155
0.0481537
-0.433618
-0.487217
0.165554
-0.599172
-0.553251
0.0660333
0.00223866
0.0294372
0.0257884
-0.0268806
0.00109222
0.042898
-0.046553
0.00365489
-0.00816774
-0.0141499
-0.0136789
-0.00400232
-0.0101476
0.057232
-0.140775
0.0835427
0.243349
0.222101
-0.46545
0.344434
-0.101085
0.554399
-0.0184662
0.0207784
-0.00231218
-0.014705
0.0233268
-0.00862177
-0.0331713
0.0441051
-0.010004
-0.0482591
0.0582631
0.0359114
-0.000236924
0.0259073
-0.035797
0.0271752
0.00196535
-0.0230227
0.00606243
0.00392868
-0.00999112
-0.00370363
0.00848568
-0.00478205
-0.0491659
0.000330904
-0.0166658
0.0438618
0.0272795
0.020624
-0.0479035
0.0359741
-0.0297001
-0.00627402
0.030814
-0.0299617
0.0324373
-0.0283014
0.00957007
-0.00281149
-0.0067586
0.509641
0.124406
0.581927
-0.0722866
0.885477
-0.417846
0.0867045
-0.00849505
0.000806556
0.00768846
-0.00951139
0.00341231
-0.00955399
0.00659948
0.00295451
0.0016942
-0.0112482
0.0116878
-0.00508827
0.00471717
0.0192924
-0.0240096
0.00872236
0.002816
-0.0115384
0.0077382
-0.00877761
0.00103938
0.00632312
-0.00788994
0.00156681
0.00408874
-0.00817686
0.0129491
-0.0303583
-0.00859546
-0.00645227
0.0150477
0.00591458
-0.01451
0.00714174
-0.013594
-0.0205906
0.0112181
-0.00462048
0.0305278
-0.00815398
0.0118682
-0.00689375
0.0116109
0.0234791
-0.491845
0.548158
-0.0563134
-0.0217168
-0.00383813
0.0255549
0.00141993
0.0178725
0.0140344
0.0209469
-0.076588
0.055641
-0.0353381
0.056285
0.000430349
-0.00618531
0.00575495
0.00688276
0.00031258
0.00731311
-0.00587273
0.757953
0.00944796
-0.767401
-0.0520936
-0.511733
0.193683
0.31805
0.0358541
0.00704392
-0.00913691
-0.0353962
0.0267171
-0.040725
0.071615
-0.0308901
0.444343
-0.548134
0.103791
-0.0380518
-0.0297038
0.0677556
-0.0720932
0.0340414
-0.357368
0.594876
-0.237508
-0.579327
0.557547
-0.060414
0.163868
-0.103454
0.102615
0.122655
0.00319455
-0.00307123
-0.00012331
0.254592
0.113124
-0.367716
0.260044
0.018226
-0.016903
0.00803257
0.0250164
-0.033049
-0.0220887
-0.0110826
-0.0321929
0.0228025
-0.0164909
0.0492907
-0.0327999
-0.886132
-0.187867
1.074
0.571106
0.373945
-0.945051
0.470156
0.287722
-0.757877
0.180925
0.28923
-0.508634
0.61871
-0.466571
0.632125
-0.305785
0.391528
-0.439979
0.361934
0.753462
0.0127176
0.0205533
-0.0204574
-0.00441924
0.0305851
-0.0215567
0.00557169
0.0314164
0.00180145
0.00864226
-0.00746258
-4.51762e-05
0.00750777
-0.00566114
0.00859709
0.504708
-0.041641
-0.0899653
0.446525
-0.356559
0.414743
0.00116656
-0.00187837
0.000711993
-4.37198e-05
0.00235696
-0.00231323
0.0596033
-0.767151
0.707548
0.00224232
-0.000209185
-0.00203313
0.160633
-0.103401
-0.0394357
1.17967
0.285152
-0.962627
0.677474
-0.00146282
-0.00207907
0.00207003
-0.00353282
-0.753799
0.338842
0.414957
0.572874
-0.85909
0.494508
0.364582
0.0807028
-0.0221409
-0.268471
0.497942
-0.229471
-1.19958
0.556536
-0.00152369
0.00152378
-0.696108
0.668617
-0.0103477
0.00464917
0.778442
-2.03559
0.749468
-0.757957
0.00848908
-0.555445
1.6273
-0.610676
0.698646
-0.0879691
0.385115
0.258995
-0.644109
0.829458
0.00223148
-0.00223132
-0.244173
0.781815
-0.537642
-0.736018
-0.467724
0.800868
-0.623333
0.0348815
-0.0702196
-0.860056
-0.339521
-1.28582
0.82391
0.536942
-0.614548
-1.03774
0.472103
0.0439413
0.463473
0.8813
-1.34477
-0.832436
1.29591
-1.38788
-0.772232
0.352292
-0.689752
-0.0824797
-0.868524
0.00943389
-0.808921
1.33926
-0.814637
0.185061
0.392279
0.00145003
0.00265245
-0.00410243
-0.130625
0.362312
0.215103
-0.904855
-0.364905
0.151783
0.213122
-1.06511
0.623942
0.125525
-0.633376
0.00275295
-0.00296957
0.000216618
-0.955018
0.0302374
0.0780592
0.0234833
-0.468837
0.651267
-0.182431
-0.344561
1.48117
-1.82573
-1.00913
-0.105335
0.923452
0.519996
-0.0194039
-0.0907145
0.0713106
0.831498
-0.51189
0.362661
-1.69547
1.39937
0.896859
-0.401475
0.210003
0.191472
-0.992952
1.85619
-0.737879
0.537352
0.200527
-0.260836
-0.477043
-0.207588
1.24866
-1.45624
0.00230692
-0.000664453
-0.30641
0.784342
0.0448311
-1.31827
0.197652
-0.519978
-0.00135362
0.00135362
-0.0113454
-0.609404
1.54115
-0.179191
0.612147
0.0601482
0.032476
-0.0251095
0.056699
0.239442
0.114862
-0.162033
0.0107482
0.606327
-0.596879
-0.554233
-0.283211
0.901378
-0.419115
0.00224613
-1.45493e-05
0.646292
0.0331168
-0.478617
-0.588847
-0.0344852
-0.899974
0.311127
-0.535393
0.709095
-0.432236
0.547098
-0.715447
-0.264374
0.474377
-1.34588
-1.48909
0.649571
-1.0459
0.0552923
0.00116048
-0.254127
0.832173
-0.578046
0.0416247
-0.0863751
0.051085
0.0352898
-0.0515749
-0.0348002
-1.19088
1.0538
0.137076
0.227081
-1.27298
0.828336
-0.362545
0.0308177
0.228514
-0.259331
-0.0854051
0.116223
-0.00768741
0.0217218
0.0157917
0.0163867
0.00471896
-0.393898
-0.568729
-0.618538
0.0913058
-1.55581
-0.023634
-0.0607277
0.771461
-1.53403
0.762569
-0.880954
1.65242
-0.755587
0.212267
0.162827
1.22904
1.55581
0.169949
0.053775
-0.0518402
-0.00193472
-0.00641886
1.64303
-1.02674
0.915296
-0.282171
0.00414605
-0.0948605
-0.0752283
0.0793744
0.8731
0.200899
0.688681
-1.06174
0.643889
-0.373054
-0.937068
0.476905
-0.652009
0.0362673
0.818083
0.535911
-0.575805
-0.898572
0.322767
-1.08788
0.539421
-0.0468882
0.118199
0.0324862
0.148709
-0.00368642
0.00346591
0.000220514
-0.00223641
-0.144121
-0.571326
-0.389506
0.018095
1.58894
1.08676
0.00234106
-0.00526033
0.00291924
-0.00390215
0.00624318
0.00951263
-0.00515746
-0.00435517
0.00178559
0.00772703
-0.00350095
0.00643385
-0.0029329
0.00614678
8.98989e-05
-0.00623669
-0.00128411
0.00874482
-0.0074607
0.00713673
-0.00620309
-0.000933646
-0.00486392
-0.00178753
0.00665145
-0.00112512
-0.00508518
0.0062103
-0.00432068
0.00204404
0.00227664
0.00206708
0.00663625
-0.00870333
-0.00127067
0.010281
-0.00901038
-0.00953482
0.00310331
0.00643152
-0.00103605
0.00910562
-0.00806957
-0.0153137
0.0150316
0.000282039
-0.00662684
0.00331406
0.00331278
0.00995089
-0.011029
0.00107811
-0.0174854
0.0115695
0.0059159
-0.00518481
0.00505628
0.000128516
0.00758319
-0.00885385
-0.0173289
0.00180188
0.015527
-0.00910851
-0.00822041
-0.00689881
0.0027526
0.0041462
0.000486484
-0.00738529
0.00393601
0.00470119
-0.0086372
-0.00722158
0.000259584
0.006962
-0.00277871
-0.00444287
0.00125544
0.00482497
-0.00608041
0.00825975
-0.0090174
0.000757652
0.00772256
0.000537196
-0.00817852
-0.0028522
0.0110307
-0.00584688
0.00472176
-0.00197284
-0.00434616
0.00631899
0.0028668
0.00376876
-0.00663557
-0.00724766
0.00640915
0.000838509
-0.00241627
-0.00483138
0.00565407
-0.00843278
-0.00963283
0.00194222
0.00769061
-0.00307686
-0.00655597
0.00141735
-0.00681358
0.00539622
0.00441668
-0.00105919
-0.00335749
0.0042081
0.000208584
-0.0161559
0.029105
-0.0024266
0.0046183
-0.00219171
-0.00608285
-0.000487027
0.00656988
-0.000152859
-0.00593
0.00184501
-0.00327568
0.00143068
0.0225048
-0.0336746
0.0111699
0.0263827
-0.00785272
-0.01853
0.00236893
-0.00840552
0.00603659
0.0112641
-0.00136298
-0.00990117
0.00384371
-0.00268669
-0.00115702
-0.00748304
-0.00252432
0.0100074
-0.0137514
0.00905471
0.00469669
0.0043649
-0.0100896
0.00572471
-0.00575441
0.00114719
0.00460718
0.0137563
-0.00268208
-0.0110743
-0.00916416
0.0229205
0.000831459
0.0070817
-0.00791316
0.00259712
0.0069712
-0.00956832
-0.00615129
-0.00198123
0.00813253
0.00569801
-0.0119654
0.00626743
0.00793432
-0.00626945
-0.00166487
0.00268076
-0.00831072
0.00562997
0.0102649
-0.0224851
0.0122201
0.00182056
-0.00703673
0.00521617
-0.00666102
-0.000622212
0.00728324
0.00961983
-0.00559602
-0.0040238
-0.00961149
-0.000556526
0.010168
-0.00797619
-0.000967371
0.00894354
0.00394656
-0.32211
0.318163
0.189721
-0.185774
0.00996262
0.00064438
-0.010607
-0.00166746
-0.00802774
0.0096952
0.00113054
-0.00504398
0.00391342
-0.00844508
0.00579083
0.00265425
0.00133126
0.00868062
-0.0100119
-0.0112078
-0.00410586
-0.00445727
-0.00675055
0.0114048
0.0149779
0.00814528
-0.00814533
-0.00461385
-0.00438353
0.00899739
-0.00949105
-0.00562624
0.0151173
0.00628838
-0.00273222
-0.00355617
0.00875077
-0.00779154
-0.000959251
0.00542493
-0.00607965
0.00740196
-0.00132232
-0.00833013
0.000784814
0.00754532
-0.00386067
-0.00446946
-0.00766026
0.0078139
-0.0078139
-0.00147735
-0.00446206
0.00593941
-0.00720295
0.0070437
0.000159242
-0.000883555
-0.0063194
-0.00387297
0.00660445
-0.00273147
-0.00573823
0.00315363
0.00258461
0.00123361
-0.00697184
-0.00466409
-0.00247826
0.00714235
-0.0105952
0.0047229
0.00587234
-0.00862638
0.00911767
-0.000491276
-0.00470551
-0.00392087
-3.18192e-07
0.0177301
-0.0177298
-0.0192977
0.0297229
-0.0104252
0.00573957
7.64448e-05
0.0077704
0.000812254
-0.00858266
0.00959045
0.00670648
-0.0162969
0.0292667
-0.0428375
0.0135708
-0.00784637
0.00947837
-0.001632
-0.00542883
-0.0105263
0.0159552
0.00806285
-0.00537806
-0.00268479
0.00195231
0.00611054
-0.004248
-0.00417839
0.00842639
-0.00645331
0.00913407
-0.0110924
0.00494108
-0.00466688
0.0101618
-0.0054949
-0.00121123
0.00334517
-0.00213395
0.00489756
-0.00666172
0.00176416
-0.00881143
0.00178276
0.00702868
0.0107126
-0.00388647
-0.00682609
0.00388868
0.00682389
-0.0059444
0.00114462
0.00479977
-0.00545078
0.00529791
-0.00794991
-0.000360814
-0.00535278
0.00288681
0.00475561
-0.00764242
0.00461387
0.00382049
-0.00843436
-0.00441803
0.00890281
-0.00448477
0.00757922
-0.00846277
-0.00830728
0.0074497
0.000857577
-0.00681142
0.00290924
0.00784928
-0.00309855
-0.00475073
0.00986448
-0.0104124
0.000547967
-0.00468
0.00410643
0.000573596
0.00538113
0.00335654
-0.00873767
-0.00508464
0.0146715
-0.00958686
-0.0149253
0.00581679
-0.0049744
-0.00863417
-0.00690046
0.0155346
0.0132494
-0.0218836
0.0388761
0.0109301
-0.00943709
0.0063822
0.00305488
0.00581303
0.00173136
-0.0075444
0.00742051
0.00471128
-0.0121318
0.0277182
-0.0537044
0.0259863
0.0424048
-0.0146867
-0.00626399
0.00550779
0.000756205
-0.022394
-0.0271497
0.0495438
0.121488
-0.0146853
-0.106803
-0.00613288
0.00725998
-0.0011271
0.0275462
-0.00145954
-0.0260866
0.0401265
-0.0125803
-0.00202534
0.0069757
-0.00495036
0.00128878
0.0101102
-0.0113989
-0.00558906
0.000616476
0.00497258
-0.000609572
0.00890547
-0.00829589
-0.00802778
0.0115032
-0.00347541
0.0163356
-0.0112495
-0.00508608
-0.000658793
-0.00552278
0.00618156
-0.00241609
-0.00403882
0.00645489
0.00526822
0.00397849
-0.00924671
0.00502967
0.00145748
-0.00648714
0.0107961
-0.00659301
-0.00420304
0.0092185
0.00157756
0.00424665
0.00495445
-0.0092011
0.00778951
-0.0038535
-0.000457374
-0.0061276
0.00658498
0.00152922
-0.00702897
0.00549975
0.0100861
-0.0083005
0.0104652
-0.0072107
-0.00325447
-0.00623974
0.000635993
0.00650903
-0.00351356
-0.00299546
-0.000117813
-0.0090409
0.00552733
-0.00343099
-0.00362068
0.00705166
0.0104452
-0.0121126
-0.00809099
0.00384299
0.00294025
-0.00866669
0.00572643
0.00692252
0.00745924
-0.00563867
-0.010756
0.00299048
0.00776552
0.00686914
-0.00467989
-0.00218926
-0.00287015
-0.000846618
0.00371677
-7.16046e-05
0.00543443
-0.00536283
0.00661062
-0.00668222
-0.000827322
-0.00732281
0.00815013
-0.0810926
-0.191705
0.272798
-0.0365418
0.0314797
0.0050621
0.00604081
0.00116659
-0.0072074
-0.00339629
-0.00735149
0.00273778
0.00461371
-0.00653441
-0.0068567
0.0133911
-0.00568293
-0.00837211
0.014055
-0.00403823
0.00856181
-0.00452358
-0.00451629
0.0108723
-0.00635599
0.00575407
-0.00409095
-0.00166312
0.00122498
0.00452909
-0.00296289
-0.00222193
0.00131717
0.00641989
-0.00773706
0.00177336
0.00574147
-0.00751484
0.000224991
-0.00781764
0.00759265
0.0036504
0.0125519
-0.0162023
0.000718899
-0.00713773
0.00641883
-0.00603881
0.00675771
0.00470312
-0.0070558
0.00235267
-0.00614603
0.00792129
-0.00177527
-0.00072065
-0.00542538
0.0064057
0.0053578
-0.0117635
0.412604
-0.218921
-0.00529994
0.0110184
-0.00571844
-0.0112449
0.00306638
-0.00991366
0.00803811
-0.00627865
-0.00175946
0.00442949
0.00165392
-0.00608341
0.00684306
-0.00593185
-0.000911208
-0.00100072
-0.00701015
0.00801086
-0.000892667
-0.00735891
0.00825158
0.00274933
-0.0089937
0.00624437
-0.00752244
-0.00796303
0.0154855
0.000515768
0.00629057
-0.00680634
0.000224079
0.00595587
-0.00617995
-0.00078208
0.0082026
-0.00969373
0.00324042
-0.00272252
-0.00785195
-0.00712884
0.00700593
0.000122907
-0.00281776
-0.00431108
0.0068278
-0.00610664
-0.000721155
0.00403896
0.00278884
-0.00643724
0.00851848
-0.00208123
-0.00684167
0.000404436
-0.00492654
-0.0042085
0.00913505
0.00517311
-0.0171409
0.0119678
0.0119753
-0.00780033
-0.00417491
0.00734693
0.00462833
-0.039872
-0.0164392
0.00492921
0.00373835
-0.00866756
-0.0101006
0.00642332
0.00367725
0.00333173
0.00444735
-0.00777908
0.0164784
-0.00838332
-0.0080951
0.0103848
-0.0150184
0.00463361
-0.00393623
-0.00417438
0.00811061
0.000808312
-0.00931362
0.00850532
-0.00463892
-0.007117
0.0117559
0.00942275
-0.00669238
-0.00273037
0.00386172
0.00558035
-0.00944207
-0.00200617
-0.00724819
0.00925436
-0.00456016
-0.00418695
0.00874711
0.00305891
0.00444655
-0.00750546
0.00823475
-0.00851256
0.000277806
0.000982859
-0.00916248
0.00817962
-0.0264215
0.0203187
0.00610288
0.00771044
-0.034132
0.0105103
-0.00709549
-0.00341486
-0.00816549
0.000875722
0.00728977
0.00329967
0.00438861
-0.00768828
0.000902752
0.00312838
-0.00403113
0.0574286
0.0251116
-0.0825401
-0.0285764
0.00865558
-0.00784727
0.00492883
0.00115523
-0.00608406
0.000566218
0.0053962
-0.00596242
-0.021809
0.0150557
0.00675326
-0.0135084
-0.00830056
0.00166368
-0.00681833
0.00515465
-0.0407329
2.87708e-05
0.0080896
-0.00828253
0.00019294
0.00500872
0.00568955
-0.0106983
0.00689197
-0.00182767
-0.00506429
0.0196317
-0.0107996
0.0110699
0.0062768
-0.0173467
0.000395086
-0.00826741
0.00787232
0.00194094
-0.0128594
0.0109185
8.43835e-05
-0.0127061
0.0126218
0.00469488
-0.00758261
0.00288773
-0.00921864
0.00290035
0.00631829
-0.00333712
-0.00463608
0.0079732
0.00332886
0.00524822
-0.00857708
0.00711533
-0.00662885
0.00449144
0.00325069
-0.00774214
-0.0089179
0.00431801
0.0045999
-0.00181547
-0.00710243
-0.00671447
0.00800404
-0.00128957
0.00785187
-0.000171821
-0.00768004
-0.00165019
-0.00200106
0.00365125
-0.00350664
0.0136188
-0.0101122
0.000512397
0.0111226
-0.011635
-0.000210404
-0.00948883
0.00969924
0.00756397
-0.0123812
0.00481718
-0.0111785
0.00315072
-0.00837302
-0.00280543
-0.00724627
-0.00431157
0.0115578
0.00465773
-0.0104692
0.00581145
-0.00739023
-0.00146497
0.0088552
-0.00607306
-0.00817943
0.00144986
-0.00677315
0.00532328
-0.00409367
0.00571708
-0.0233331
0.0127208
0.0106123
0.00728477
-0.000887793
-0.00639698
-0.00585058
0.00618606
-0.000335479
0.0149696
-0.00458476
0.00940844
0.00556116
0.0118937
0.0103484
-0.00906152
-0.00128687
0.00237216
-0.00393314
0.0308523
0.00992688
-0.00326451
-0.00666238
0.00757288
-0.00869475
0.00112187
0.000910254
0.00666263
0.00790728
-0.00843651
0.000529224
0.00401027
0.00389701
-0.00222593
-0.0170717
-0.0113901
-0.0101792
-0.00689249
0.00882252
-0.00177612
-0.00704641
-0.00723912
0.00705009
0.000189019
0.00346854
0.00341829
-0.00688683
-0.0133227
0.0066165
0.00670615
-0.00593047
-0.00550388
0.0114344
-0.0229305
-0.0195036
0.0424341
-0.00974103
0.0063327
0.00340834
-0.00573652
-0.00400451
0.0108127
-0.00807928
-0.00273341
0.00285931
0.00695122
-0.00981053
-0.00821349
0.00692938
0.00173278
-0.00813136
0.00639859
-0.00652258
0.00566395
0.000858633
-0.00181215
0.00339322
-0.00158107
-0.00423616
0.0161976
-0.0119615
-0.0247184
0.0204822
0.136426
-0.240988
-0.185684
0.059119
-0.0172073
-0.0419117
-0.00980673
0.00417555
0.00563117
-0.0109183
0.0011116
-0.00368535
-0.00522935
0.00891471
0.00510375
-0.0087891
-0.0126842
0.0213874
-0.00870327
0.0174015
0.0274194
-0.00603197
-0.00899585
-0.0423112
0.0513071
0.03274
-0.0417359
-0.00174039
0.00905349
-0.00522445
0.0241723
-0.0189479
0.0114086
-0.0291958
0.0177872
0.00125106
-0.00785113
0.00660007
0.017658
-0.00407445
-0.0135835
0.0155041
0.0021539
0.00487608
0.00437466
-0.00925074
-0.00469224
-0.00970406
0.0188042
-0.0091001
0.00355529
-0.00597138
-0.00368383
-0.036529
-0.0343829
0.0709119
0.0440894
-0.0640786
0.0199891
0.00443965
0.00575837
-0.010198
-0.00270422
0.00714388
9.49884e-05
0.00566338
0.00283635
0.0047875
-0.00762385
-0.00282192
0.00805031
-0.00522838
0.00720961
0.00161291
-0.00410061
0.00902983
-0.00288314
-0.00237234
0.00525551
-0.0106871
0.0135651
-0.00287797
-0.00552409
0.0149699
-0.00944582
0.00958855
-0.000907943
0.00673635
0.0104523
-0.00105425
-0.00939809
0.00426479
0.00371799
-0.00798278
-0.0115995
0.00591658
-0.003891
-0.0071001
0.0109911
0.00827642
-0.00424833
-0.00402809
0.00168341
-0.00574061
-0.00387899
0.00961961
-0.00534553
0.0036145
-0.00749349
0.00262446
-0.00837935
0.00575488
-0.00611227
0.00873674
0.00577746
-0.00427439
-0.00150306
-0.00915393
0.00475315
0.00440076
0.00803046
0.00139873
-0.00942919
0.00321967
0.00359736
-0.00681703
0.00445328
0.00554967
0.00940425
-0.0113998
-0.00776627
0.00271099
0.00505527
0.0169629
0.0233006
-0.0402635
0.0369693
-0.0197998
-0.0171695
8.21782e-05
0.0062876
-0.00636977
-0.00560418
0.00568635
0.00227718
0.00401042
0.00901565
-0.00432076
0.00317815
0.00523685
-0.00841499
-0.000302731
-0.00514805
0.00624713
-0.00154401
-0.00669205
-0.0114361
0.00917147
0.00226464
-0.0110202
0.0104107
0.00844138
-0.00399292
-0.00444847
0.00151332
0.0117361
0.0117783
0.00588308
0.00585298
0.0064407
-0.00951756
-0.00160671
-0.00878039
0.0103871
0.0130148
0.00181268
-0.0148274
0.0213686
0.00839773
0.0327772
-0.00357616
-0.00643632
0.0100125
-0.00756905
0.0039929
0.00472044
-0.00520748
-0.00941858
-0.0285468
0.0379653
0.000699801
0.00689299
-0.00759279
0.00968034
-0.00755001
-0.00213033
-0.0165005
-0.000592353
0.0170928
-0.0444929
0.0203227
0.0241702
0.0354155
-0.0264537
-0.0089618
0.00362351
0.00592353
-0.00954703
0.0133926
-0.0202931
0.000186162
0.00702344
0.00565497
-0.00546881
0.00423643
0.00278702
0.00371331
0.00503151
-0.00511898
0.00883229
-0.00170989
0.00674141
0.00888456
-0.022393
-0.00664902
0.00599022
-0.00584106
0.0043373
0.00150376
-2.80292e-05
0.0217552
-0.0254258
0.00367059
-0.00663764
-0.00395761
0.00487435
0.00226238
0.00612979
0.00729205
0.00802978
-0.006297
-0.00652402
0.00652404
-0.0385113
0.0133059
0.0252054
0.00643353
-0.00801115
0.00157761
0.00788339
-0.00161284
0.00422533
-0.0026125
-0.00188043
0.00188044
0.0194319
0.0175374
-0.00756562
0.00703485
0.000530774
0.0320089
-0.0017247
0.00618814
0.00360476
-0.00979289
-0.0019521
0.00814023
0.0019211
0.0077189
-0.00964
0.00747768
-0.00414595
0.00875001
-0.00964268
0.0374424
0.0191479
-0.0565903
-0.00528841
-0.00481571
0.0101041
-0.0134557
-0.00304477
-0.000599306
-0.0128564
0.0141669
-0.0172116
-0.00740142
0.0009651
0.0253184
0.00233563
-0.027654
0.00969849
0.0156199
-0.0264298
0.0287654
-0.00208514
0.00735717
-0.00527202
0.0024102
0.00537406
-0.00778426
-0.00391285
0.00391285
-0.00479799
0.00840588
-0.0036079
-0.00784506
-0.0344182
0.0166037
0.0178145
-0.012663
-0.00811462
0.00508326
-0.00508327
-0.00357944
0.00357945
-0.00329379
0.0127172
-0.00942341
-0.00135145
-0.00884023
0.0101917
-0.0102007
0.00748427
0.00271638
0.000827631
-0.00656108
0.00573345
0.00705028
-0.00132231
-0.00572797
0.0078779
-0.0107132
0.00910646
-0.00824769
0.00813434
0.000113351
-0.00508278
-0.00248628
0.00587483
-0.0103911
0.00293869
-0.00293868
0.00489313
0.00289638
0.0048651
-0.0118664
0.00344906
0.00841736
-0.0148246
1.1649e-06
0.0148235
0.000365774
-0.0100951
0.00972937
-0.00730725
-0.00984949
0.0171568
0.00577542
-0.0042462
0.00311023
-0.00611465
0.00300442
0.0260213
-0.000871688
-0.0251496
0.0234985
0.00392089
-0.00725339
0.00768383
-0.000430443
-0.0113414
0.00480699
-0.0136732
0.00233181
0.0132528
-0.00844582
-0.00906612
0.00079872
-0.0062215
-0.00284462
0.00142807
0.00557787
0.0172777
0.0103161
-0.0275938
0.00333275
0.00627125
-0.009604
0.00734034
-0.0166341
0.00929382
0.0043289
-0.00432901
-0.00921339
0.00252968
0.00668371
0.00262491
-0.00787029
0.00524538
0.00285235
-0.00285234
0.00783919
-0.00497987
-0.0121184
0.0102378
0.00188063
0.00264561
-0.00802598
0.00538036
-0.0124837
0.0142856
0.00457829
-0.00822083
0.00364254
0.00736236
-0.0055126
0.00610546
-0.000592875
0.00589265
0.000713314
-0.00660597
-0.0205415
0.0238449
-0.00330343
0.0206222
9.10838e-06
-0.0206313
0.0100639
0.00496773
0.0101483
0.0123081
-0.00372247
-0.0100289
0.00446198
-0.00818446
5.91477e-05
-0.0100881
-0.00342119
0.00603672
-0.00261554
0.0030839
0.00322775
-0.00631166
-0.00559624
0.00559626
0.00416712
0.00379827
-0.00796539
0.00203757
-0.00203756
0.00552935
-0.00977769
-0.00749852
0.0079096
-0.00041108
-0.264998
0.0596813
0.205317
-0.165247
0.244447
-0.0792005
-0.430245
0.304129
0.00904544
-0.00103416
-0.00801127
-0.00733336
0.00028958
0.00704378
-0.00468775
-0.465205
0.322275
0.14293
-0.153826
-0.311379
-0.000924066
0.0101426
-0.000213622
-0.014611
0.0138004
-0.00844353
-0.00535691
0.0135868
-0.00776992
0.00677006
0.000999857
-0.00492023
-0.00661532
0.0115356
-0.00664853
0.00619115
-0.00720863
-0.000268731
0.00747736
0.0221051
0.00368327
0.000344738
-0.0208862
-0.029517
0.0335471
-0.00403008
0.0106095
-0.0087641
-0.00300945
0.00300946
0.00216433
0.0073219
-0.00948624
-0.00669429
-0.00297202
0.0096663
-0.00452996
0.00434987
0.00318975
0.00370221
0.00627366
-0.0109294
0.0131434
-0.002214
0.000156458
0.0184312
-0.0185876
0.0213915
-0.021235
-0.00114861
-0.00469996
0.00584857
-0.0342863
0.00991652
0.0243697
-0.0299609
-0.00432539
0.0363001
-0.0263836
0.00506149
0.00264155
-0.00770305
0.0062061
0.00753911
-0.012395
-0.00116995
0.013565
-0.0105071
-0.00188795
-0.00388178
0.055696
-0.0518142
-0.0161816
-0.0223297
-0.00622724
-0.00162575
0.00110936
-0.00615328
0.0050439
-0.000746636
-0.00606768
0.00681431
-0.00692576
0.00617912
0.00319651
0.013428
-0.0166245
-0.013964
-0.00372395
0.017688
-0.0107675
-0.0063457
0.00705309
-0.000707392
-0.00461434
0.00733455
-0.0014419
-0.0328635
-0.0011072
0.0339707
-0.0128905
-0.019973
0.0342817
-0.0353888
0.0213994
-0.0191607
-0.00548119
-0.00118741
0.00118742
0.00502531
0.00177344
-0.00201864
0.00704395
-0.0130832
-0.0161126
-0.0183077
0.0014622
-0.00146219
0.00359232
-0.00359229
-0.00207529
0.00207531
0.00588304
-0.00116014