/*--------------------------------*- C++ -*----------------------------------*\
  =========                 |
  \\      /  F ield         | OpenFOAM: The Open Source CFD Toolbox
   \\    /   O peration     | Website:  https://openfoam.org
    \\  /    A nd           | Version:  6
     \\/     M anipulation  |
\*---------------------------------------------------------------------------*/
FoamFile
{
    version     2.0;
    format      ascii;
    class       volVectorField;
    location    "700";
    object      U;
}
// * * * * * * * * * * * * * * * * * * * * * * * * * * * * * * * * * * * * * //

dimensions      [0 1 -1 0 0 0 0];

internalField   nonuniform List<vector> 
29884
(
(7.49562 0.0591057 -1.04812e-16)
(5.33674 0.0254586 9.03623e-17)
(5.41256 -0.115441 5.02266e-17)
(7.11123 -0.0755779 1.56257e-18)
(7.21596 0.103932 -3.09174e-17)
(5.74341 0.155801 7.51815e-17)
(7.90592 -0.119111 -3.42264e-19)
(7.40468 -0.000696885 4.24155e-17)
(4.70028 0.121069 2.38527e-17)
(7.13533 0.0179294 7.914e-17)
(7.44404 0.00906314 -3.32236e-17)
(7.20168 0.19556 2.33833e-17)
(8.07904 -0.131943 -2.36725e-17)
(7.17599 -0.112993 2.44105e-17)
(7.19879 0.099214 -3.28554e-17)
(4.44106 -0.0565453 8.51429e-17)
(8.24329 0.0506362 -3.53094e-17)
(6.67427 0.195255 -5.95223e-17)
(6.52618 0.162608 0)
(4.18132 -0.00371193 -1.65543e-16)
(7.80365 0.208868 1.45277e-16)
(4.94073 -0.037837 0)
(8.00615 -0.0621757 -4.51615e-18)
(7.11444 -0.0216316 0)
(7.07094 -0.013029 0)
(7.5964 0.0450839 -2.79626e-17)
(7.86012 -0.0110189 0)
(8.03317 -0.0475175 8.57596e-17)
(5.16477 -0.0248025 8.83362e-17)
(5.17458 0.113157 7.67216e-18)
(5.39739 -0.00777767 -2.04976e-17)
(4.81031 0.0895076 5.07654e-16)
(8.00608 0.0335061 -2.52953e-17)
(7.44066 -0.0302632 0)
(7.27704 -0.0583468 -8.13192e-17)
(7.50804 -0.104599 6.3386e-17)
(5.02584 -0.0366137 8.40453e-17)
(7.54351 0.135381 1.01926e-17)
(5.35051 0.146786 -8.41391e-17)
(7.78342 -0.158213 -3.90846e-17)
(5.03042 -0.0528559 0)
(7.05467 0.0715242 2.04386e-17)
(7.60023 0.196329 -4.87692e-17)
(7.22998 0.283 -3.20232e-16)
(6.97848 -0.0146878 2.00662e-17)
(7.58656 -0.155889 -2.28492e-17)
(8.04204 -0.212666 0)
(7.67823 -0.123124 -6.92122e-18)
(4.80628 0.0344522 -1.98711e-17)
(8.35974 0.0921492 0)
(7.37349 0.125571 0)
(7.18309 -0.0737059 9.19804e-18)
(4.72552 -0.152197 3.682e-17)
(8.42989 0.0279305 1.02424e-16)
(7.21653 -0.0628055 -8.14179e-17)
(7.10342 -0.137789 6.20472e-17)
(4.41959 -0.0182317 1.18386e-17)
(7.99652 -0.056967 0)
(6.67552 0.0498891 6.45567e-17)
(6.91073 -0.14419 -1.03702e-16)
(7.77868 0.159165 -1.83709e-17)
(7.82858 -0.0112737 2.44989e-17)
(4.71791 -0.100794 0)
(8.13951 0.0539848 -4.34757e-17)
(7.12505 -0.0686777 2.92663e-17)
(7.01182 0.0808159 -6.21506e-18)
(7.46199 -0.0464354 9.36703e-18)
(7.83353 -0.121864 6.21691e-17)
(7.42234 -0.0968219 -4.16642e-17)
(7.32845 0.0672502 5.96102e-17)
(7.24748 0.196623 3.71481e-17)
(7.67237 0.0663124 -1.07843e-17)
(7.51796 0.102026 0)
(5.63185 -0.138808 0)
(7.32042 -0.106234 -5.13612e-17)
(6.9222 -0.0939168 -1.68239e-17)
(8.14647 0.10386 0)
(7.89183 -0.125349 0)
(8.09832 -0.11887 0)
(5.09805 0.0331784 0)
(7.67017 -0.0839691 5.44549e-17)
(5.25107 -0.051546 0)
(7.12905 -0.136606 0)
(7.01288 0.0962158 2.88985e-17)
(6.55189 -0.0513439 -1.96301e-17)
(4.46656 -0.498474 -9.43402e-18)
(7.35772 0.00174054 0)
(7.61497 -0.0320456 0)
(7.27142 -0.109438 4.42324e-18)
(3.6125 -0.827925 1.88933e-17)
(7.20559 -0.202843 0)
(7.90621 -0.251657 -1.98845e-17)
(4.49265 -0.0876558 -5.38955e-17)
(3.28825 -0.698613 0)
(7.11711 0.127322 -4.51527e-17)
(1.46197 -0.315102 0)
(6.9961 0.0141893 -7.73592e-17)
(7.00697 0.0132847 1.02458e-16)
(7.47559 0.0577124 3.92293e-18)
(3.33547 -0.533966 0)
(7.01084 0.0385027 5.10305e-17)
(6.94101 0.0753169 1.1417e-16)
(7.66924 0.0144974 0)
(7.76357 0.0178272 -2.96907e-18)
(7.37021 -0.117244 -4.64523e-18)
(8.13944 -0.121548 0)
(3.75902 -0.625762 1.536e-17)
(3.64737 0.0566001 -3.82304e-17)
(7.11536 0.132892 -5.10813e-17)
(6.98305 -0.344864 0)
(7.40758 -0.219971 0)
(1.2786 -0.17935 7.08993e-17)
(7.26598 -0.0796407 2.93336e-18)
(7.1576 -0.114078 0)
(7.31972 -0.119351 -2.50399e-18)
(6.97043 0.112341 -2.9038e-17)
(7.15875 0.117296 0)
(7.1547 -0.227943 0)
(6.75488 -0.0854345 0)
(6.64023 -0.333501 4.28587e-17)
(7.00364 0.00615397 0)
(6.85783 -0.320751 2.72803e-17)
(7.32211 -0.168667 4.2901e-17)
(6.77737 0.198658 0)
(7.03721 -0.0281181 1.32118e-17)
(7.06495 -0.191449 -6.16878e-17)
(7.81852 -0.270049 4.76723e-18)
(7.96816 -0.0389809 1.55447e-17)
(6.88496 -0.221004 -4.5921e-18)
(6.98119 0.138837 0)
(6.76277 0.168712 1.37009e-17)
(6.94142 0.120603 -1.54297e-17)
(6.97968 -0.105775 4.12945e-17)
(8.15093 -0.120299 0)
(6.87066 -0.0847069 0)
(7.48601 -0.0886137 0)
(7.64784 0.237281 0)
(7.35817 -0.111227 6.21512e-18)
(7.54415 -0.145612 -1.60017e-17)
(7.54481 -0.1322 3.28869e-17)
(7.40556 -0.11599 0)
(7.27687 -0.0235932 2.61906e-17)
(7.69502 0.136449 -1.92302e-17)
(7.75588 -0.234998 -9.64406e-18)
(7.99842 -0.189894 -1.05041e-17)
(8.0243 -0.215345 1.03644e-18)
(7.77197 -0.183178 1.95238e-17)
(7.48564 0.177857 5.71667e-17)
(7.80643 0.117866 -4.82717e-17)
(7.74457 0.208194 5.30161e-17)
(7.63495 0.125626 0)
(4.2448 -0.109513 -2.47427e-17)
(3.88304 0.0306707 0)
(7.91619 -0.146418 -1.37756e-17)
(7.83746 -0.222238 2.38118e-17)
(7.89992 -0.165393 0)
(7.94061 -0.188928 -7.315e-18)
(7.82536 -0.210978 0)
(7.87842 -0.123865 0)
(7.9137 -0.181177 0)
(7.8707 -0.15597 -2.44173e-17)
(7.03277 0.0210323 3.61315e-17)
(6.94994 -0.0555138 -3.66478e-17)
(7.54271 0.186388 -9.12717e-17)
(1.09333 -0.0665397 -1.18298e-16)
(1.04252 -0.00899503 1.12561e-20)
(4.93336 -0.0755963 0)
(4.73032 -0.00637058 0)
(7.0078 0.0437695 -4.40895e-17)
(7.98223 0.20739 5.41126e-17)
(7.36743 0.0503385 -1.5711e-16)
(6.97963 0.107218 0)
(6.97281 0.0774836 0)
(6.8507 -0.0580073 -1.81608e-17)
(7.0175 -0.0594443 0)
(7.01974 -0.192875 7.97658e-18)
(6.82394 -0.27796 -7.15901e-17)
(5.18038 -0.0321122 7.68909e-17)
(7.0713 0.140968 -4.08117e-17)
(7.25722 -0.208561 -7.32139e-18)
(6.99899 -0.296504 -1.61324e-17)
(6.29716 -0.381153 -3.33973e-18)
(6.29401 -0.285301 4.14538e-17)
(6.41664 -0.218009 7.83342e-18)
(7.17945 -0.104866 8.21083e-18)
(7.29144 -0.132061 0)
(7.06513 -0.0222931 -6.83399e-17)
(6.98525 0.000606401 3.9973e-17)
(7.30986 -0.24781 -4.23532e-18)
(6.97421 0.108804 3.18108e-17)
(7.38839 -0.176382 0)
(6.54857 -0.0809676 2.69548e-17)
(6.41058 -0.134368 -7.4998e-18)
(7.26399 0.165233 7.40001e-18)
(7.36479 0.132214 -2.81968e-18)
(7.03502 0.156936 0)
(6.841 0.184556 0)
(7.37562 0.055777 2.80367e-17)
(7.61698 -0.01695 -9.45269e-18)
(7.46888 -0.128591 0)
(6.76658 0.0292996 0)
(7.59257 -0.0329408 0)
(7.53042 0.0603056 3.61638e-17)
(7.1683 -0.0101752 -3.71626e-17)
(7.37002 0.0713251 -1.0331e-16)
(6.56092 -0.309686 0)
(7.43209 -0.0754605 0)
(7.20641 -0.11069 0)
(7.33885 -0.0415465 0)
(7.8703 -0.120674 0)
(7.71063 -0.120223 0)
(7.89537 0.0651379 0)
(8.09968 -0.0806669 0)
(4.7705 -0.0769484 0)
(7.08102 -0.0968358 0)
(4.59159 1.30919 -2.7433e-19)
(6.24658 2.5418 -6.20233e-19)
(4.57886 0.128292 1.29627e-18)
(6.64571 2.61718 0)
(2.74587 -1.54172 -1.54232e-20)
(2.66894 -1.51628 1.45891e-17)
(7.18085 -4.56317 6.77462e-18)
(6.78518 0.325287 0)
(6.7182 2.27125 0)
(4.11615 -0.879913 -2.16494e-17)
(2.6128 -1.58721 -1.39673e-20)
(4.67138 -0.767056 1.92305e-18)
(2.99951 -0.563957 0)
(2.77129 -5.98949 5.61108e-18)
(6.80682 -1.11484 0)
(4.93489 -4.7376 -7.73208e-20)
(4.61032 -0.810737 2.20096e-18)
(4.8352 0.019998 4.38835e-21)
(6.27755 -4.47345 -1.90291e-18)
(6.37466 -4.47845 -1.91752e-18)
(4.82542 0.289028 4.14155e-19)
(4.7834 0.306589 -5.17985e-19)
(6.72038 0.239368 -8.63057e-17)
(3.30055 -0.0512592 0)
(5.32124 -3.95071 -1.68869e-18)
(5.76053 -3.96135 0)
(1.55391 -0.841529 0)
(4.60478 1.02776 -1.2269e-18)
(5.78747 -4.46439 3.09688e-18)
(6.36896 -3.68675 -1.92552e-18)
(6.41799 1.89382 0)
(4.56205 -1.69478 1.91606e-18)
(4.61704 -0.422626 0)
(5.07484 -1.10909 3.99591e-18)
(6.37898 -2.16715 -1.43496e-17)
(6.56248 -3.91354 -3.87946e-18)
(6.32387 2.89372 2.60924e-20)
(6.3412 2.31422 1.89935e-18)
(6.31389 2.40754 -2.45792e-18)
(2.59151 -1.18823 0)
(2.64192 -1.3914 7.26932e-20)
(2.90764 -1.49815 -1.8851e-17)
(2.81332 -1.44679 -2.4309e-20)
(5.53785 -1.79847 -7.52569e-18)
(5.06167 -1.60981 6.56438e-18)
(6.19876 -1.88119 0)
(6.17262 2.49926 2.63842e-18)
(5.44937 -4.50983 -1.36868e-18)
(1.64551 0.691518 -7.16616e-17)
(6.09292 2.88564 0)
(4.4641 -1.51084 0)
(7.22261 -3.89166 1.55553e-17)
(6.51227 2.01276 2.33973e-18)
(6.56329 2.06195 5.47196e-19)
(4.46689 -1.39737 0)
(6.42407 2.53586 -8.6519e-20)
(6.39989 2.55099 1.04389e-19)
(2.94688 -1.41156 9.48921e-18)
(4.28515 -2.32381 3.09364e-19)
(4.16438 -2.5578 2.50611e-18)
(3.87592 -1.07922 4.40309e-17)
(3.6654 -1.03972 0)
(3.01856 -0.701763 0)
(3.12651 -0.770434 5.20176e-19)
(5.59537 -4.23999 1.40833e-18)
(3.81156 -0.287508 0)
(4.77243 -0.625296 -4.70042e-19)
(6.88918 -0.437941 2.03933e-17)
(6.37631 2.53898 0)
(6.56784 0.199477 5.82721e-17)
(6.31827 2.19294 0)
(6.36197 2.24344 0)
(6.00811 -4.90039 0)
(0.942105 -0.466782 8.62854e-17)
(6.86955 0.319018 -8.27936e-17)
(2.85488 -0.388418 -1.00215e-17)
(4.807 -0.24748 1.67228e-18)
(4.8312 -0.0670113 -7.89864e-19)
(5.52058 -4.36419 -8.27203e-19)
(6.25189 -4.92134 -7.63638e-19)
(6.26633 -4.87683 -2.41422e-18)
(6.21902 2.40627 3.80977e-18)
(4.79898 -0.340328 -2.68745e-18)
(4.77856 -0.526937 9.91159e-19)
(5.87701 -4.32231 -1.43107e-18)
(6.32587 -3.76168 0)
(4.66228 -0.994707 0)
(4.69706 -0.915277 0)
(4.65254 -1.10412 0)
(3.05459 0.454403 -1.77608e-17)
(3.73803 -1.73812 9.42984e-18)
(4.10492 -1.33704 0)
(6.10217 0.11602 -1.74363e-17)
(6.27925 2.39575 -6.13662e-19)
(6.24983 2.32907 -2.18916e-18)
(6.29314 2.33574 -2.47682e-18)
(6.23792 2.38933 -4.85904e-18)
(2.89403 -1.64401 -2.12032e-17)
(5.22019 -4.28691 5.45853e-19)
(5.29392 -4.35778 -1.21772e-18)
(6.31993 -4.87492 3.76883e-18)
(6.48952 -4.14721 0)
(4.73393 -0.559058 1.81294e-18)
(7.00518 -3.31911 -4.95421e-18)
(7.18861 -3.6617 -1.04982e-18)
(6.64703 -2.84588 3.89069e-18)
(3.30901 0.131911 0)
(3.17233 0.367969 -1.768e-17)
(3.15484 0.162096 0)
(6.40488 -4.97476 -1.37628e-18)
(6.39253 2.48487 1.13268e-19)
(2.99163 -1.90784 -1.4217e-17)
(2.91542 -1.7175 1.87979e-17)
(3.02458 -1.73101 2.27294e-17)
(2.85257 -1.90009 6.61731e-18)
(6.37023 2.47125 1.14838e-18)
(6.42177 2.44736 -1.60062e-18)
(6.40241 2.42417 3.48095e-19)
(6.39986 2.48412 4.11269e-19)
(4.58114 1.0948 2.38845e-18)
(4.49634 1.23152 -1.41089e-18)
(6.8064 0.290358 -2.73051e-19)
(6.06745 -0.753278 -3.55038e-17)
(2.82543 -0.721407 -2.03951e-17)
(2.80336 -0.958238 0)
(7.14769 -3.42466 -5.85087e-18)
(7.54061 -0.470283 -4.12699e-17)
(2.78793 -1.33033 5.93521e-18)
(5.76799 -0.890663 -2.18026e-18)
(7.13089 -0.247749 8.79372e-18)
(2.79537 -0.577859 0)
(2.89137 -0.563484 1.92691e-17)
(2.85845 -0.492845 6.53192e-20)
(2.83609 -0.617462 -5.56641e-18)
(3.52645 -0.0651073 3.2627e-19)
(3.52308 -0.242581 0)
(3.31816 -0.000841368 -6.95748e-18)
(6.43111 2.51296 0)
(6.41614 2.49453 0)
(6.45795 2.49654 2.20311e-19)
(3.22898 -0.432364 0)
(3.06654 -0.445012 3.34466e-17)
(3.01709 -0.0984449 0)
(3.03317 -0.31949 -3.62087e-17)
(3.09176 -0.170131 0)
(3.34156 0.598922 -6.57536e-18)
(3.57956 0.290658 3.83324e-17)
(6.17408 0.167881 -6.29632e-17)
(6.7264 2.17393 -9.55498e-19)
(6.31126 2.43792 9.00262e-19)
(6.3439 2.46617 -1.85234e-18)
(6.70058 -0.658233 6.26053e-18)
(6.74957 -0.422175 0)
(1.13049 0.415089 0)
(2.63221 -0.53852 -8.41844e-18)
(7.00871 -3.57993 0)
(6.69893 -3.78533 -1.20703e-17)
(7.12672 -0.267476 -2.04592e-17)
(7.14814 -0.252735 1.62051e-17)
(7.08762 -0.305728 0)
(6.17933 2.54886 1.38546e-18)
(6.22164 2.61232 6.80419e-19)
(6.77524 -4.21804 4.59421e-19)
(6.27855 -4.94479 0)
(6.35545 -4.96125 1.80492e-18)
(6.26224 -4.98598 1.89374e-18)
(5.19716 0.240242 1.03851e-16)
(6.49961 -0.514004 -5.72713e-17)
(6.51889 -0.640997 0)
(6.59216 -0.436051 -2.50776e-17)
(6.05311 -4.18853 0)
(6.24111 -4.25876 3.92728e-18)
(6.13576 -4.31583 -3.70032e-21)
(6.1246 -4.1902 -3.67975e-18)
(4.15623 -0.345692 0)
(3.91179 -0.113314 -2.18367e-18)
(3.83488 -0.317525 -3.35012e-17)
(4.17004 -0.202523 0)
(6.3602 -4.31785 2.03034e-18)
(6.41021 -4.42424 2.40441e-19)
(6.4767 -4.26615 -1.42496e-18)
(4.70196 0.775032 1.92968e-18)
(4.66979 0.641105 0)
(6.2578 -3.78265 0)
(5.9599 -3.92288 -3.23234e-18)
(3.87346 0.431464 -5.41018e-19)
(3.57909 0.796994 -8.52591e-18)
(4.22685 -0.537316 -5.39479e-19)
(3.97771 -0.64319 1.85637e-17)
(4.12533 -0.666965 -1.18337e-17)
(4.15035 -0.433272 1.07132e-17)
(3.81044 -3.28304 -1.83977e-18)
(6.66979 0.260823 1.04878e-17)
(6.65756 0.230909 0)
(6.87726 0.145761 0)
(6.80992 0.179421 5.93593e-18)
(4.42256 1.49224 0)
(4.52924 1.38233 0)
(2.83634 -0.177965 -2.39174e-17)
(2.82655 -0.061308 1.6401e-20)
(2.75541 -0.205672 1.10168e-17)
(3.3139 -1.23912 0)
(6.16555 -1.73024 0)
(4.11935 1.85458 -9.35671e-20)
(4.31217 1.77865 -1.89102e-18)
(4.43664 1.29627 -1.39066e-18)
(5.14245 -3.96719 0)
(3.09366 -1.17473 9.35978e-18)
(3.172 -1.04161 1.83996e-17)
(2.96363 -1.13443 0)
(3.49428 -0.499571 0)
(3.7433 -0.32977 4.33708e-17)
(3.57789 -0.294515 -5.33038e-18)
(3.72023 -0.494882 -3.16471e-17)
(3.04927 -1.4395 1.84386e-17)
(3.2077 -1.32393 0)
(3.11383 -1.2749 -1.9402e-17)
(3.17426 -1.45126 0)
(7.6445 -0.412295 1.46985e-17)
(3.61216 -1.39827 0)
(3.41305 -1.2655 0)
(3.58231 -1.20314 0)
(3.42264 -1.41972 1.54916e-17)
(7.01166 -2.7695 0)
(7.13424 -2.56406 -8.24033e-18)
(4.5789 -1.27645 -5.58596e-19)
(4.64123 -1.16713 0)
(4.62467 -1.26804 5.09191e-19)
(4.60035 -1.18466 0)
(6.89814 0.0769912 3.67338e-19)
(6.8629 0.00937318 0)
(6.508 0.323194 3.43293e-17)
(6.72626 -4.14366 1.93478e-19)
(6.62528 -3.98503 3.52881e-18)
(6.78381 -4.03793 3.31034e-18)
(6.58151 -4.10566 3.87418e-18)
(6.85464 2.14472 0)
(7.25962 0.460173 -2.75943e-17)
(4.43315 -1.5427 1.96187e-17)
(4.52639 -1.2524 -3.58851e-17)
(7.01534 -0.358225 1.68569e-17)
(7.10446 -0.284658 -1.16304e-18)
(7.03049 -0.332508 -1.10812e-17)
(6.84803 1.41055 2.51261e-18)
(3.875 -0.200104 -3.57999e-17)
(2.06065 -0.192518 0)
(6.06194 -0.498954 -2.43548e-17)
(6.18611 -0.486282 5.59239e-18)
(6.32478 2.96027 -1.73225e-19)
(6.05761 -4.45684 0)
(6.11997 -4.38196 1.59151e-20)
(6.18392 -4.42875 2.18574e-18)
(6.02235 -4.37296 1.96571e-18)
(4.20875 -1.22754 0)
(4.42949 -0.917858 -6.1812e-18)
(4.23785 -0.964528 0)
(4.43314 -1.1601 3.94296e-17)
(6.90309 0.116217 0)
(6.91325 0.0794849 1.42843e-17)
(6.90154 0.097342 0)
(7.00323 0.0754164 5.46939e-19)
(6.99987 0.0951172 -1.79195e-17)
(7.57605 -0.186465 0)
(7.24382 -0.229789 -4.7612e-18)
(7.37765 -0.229735 5.03115e-18)
(7.41966 -0.184603 0)
(6.63055 0.185521 0)
(6.74473 0.0918469 -7.28641e-17)
(6.71168 0.165378 5.23285e-18)
(6.64548 0.134352 4.49994e-17)
(5.76788 -4.41538 -3.32752e-18)
(5.68382 -4.29326 0)
(5.63758 -4.37703 0)
(5.81158 -4.3451 0)
(6.21216 2.48861 1.38147e-18)
(6.24237 2.51634 -7.60427e-19)
(6.23667 2.45076 1.13731e-18)
(2.80027 -1.03911 0)
(2.71158 -1.14287 7.2158e-18)
(2.71924 -1.06281 -7.59442e-18)
(2.80541 -1.13751 -5.82827e-18)
(6.50234 0.213743 -9.69395e-18)
(6.37909 0.244222 3.78829e-18)
(6.44932 0.186071 9.68196e-17)
(2.07143 -0.271502 -2.59081e-17)
(2.07388 -0.0181515 2.41066e-17)
(6.94074 0.152696 0)
(2.11407 -0.196208 -1.00289e-18)
(5.35165 0.112386 -1.24637e-16)
(6.99578 0.0216762 5.09018e-17)
(7.01999 0.0787723 2.17492e-17)
(2.12507 -1.04966 -8.06734e-18)
(2.37834 -1.11192 1.4009e-17)
(7.01127 0.120983 6.34738e-17)
(7.01019 0.0876284 6.8984e-17)
(7.00881 0.094996 -2.27139e-17)
(6.95599 0.210454 8.92958e-17)
(6.65203 -2.16677 1.57634e-17)
(7.00205 0.251338 0)
(5.95958 -0.0882452 1.56756e-17)
(1.38948 -0.233479 -9.45499e-21)
(1.85768 -0.288285 0)
(6.77201 0.241033 -6.02763e-17)
(4.52176 -1.32124 0)
(7.45374 0.0192212 -4.75617e-17)
(6.99897 0.148545 4.73406e-17)
(6.81964 -0.0151554 0)
(7.90273 -0.421861 0)
(7.3467 0.350046 0)
(7.33319 0.425781 3.10418e-17)
(1.55633 0.454522 2.43803e-17)
(7.7571 -0.297134 7.93984e-17)
(7.69897 -0.360491 0)
(7.14191 0.183381 -3.90013e-18)
(6.84644 0.287786 0)
(7.16707 -2.57131 8.34311e-18)
(6.00567 -0.0749552 1.29578e-17)
(7.19075 -0.169835 -1.75894e-18)
(7.13503 -0.21923 2.83577e-18)
(7.17426 -0.197925 4.26964e-19)
(7.5889 -0.237852 0)
(6.65501 -0.47167 -6.28706e-18)
(6.63267 -0.593279 8.68946e-18)
(8.11739 -0.229398 3.75979e-17)
(8.16822 -0.142116 -3.82276e-17)
(8.08587 -0.135609 8.28781e-17)
(6.9462 -0.119049 2.44419e-18)
(6.83928 -0.0962947 2.61708e-18)
(6.97386 0.186631 2.64597e-17)
(6.96899 0.16016 2.59606e-17)
(7.0005 0.0238502 2.81641e-17)
(7.00292 0.0379917 6.12238e-17)
(6.40596 -0.39275 0)
(3.20441 0.501129 0)
(6.80668 -0.476443 0)
(6.78559 -0.604017 0)
(7.17006 -0.168487 2.11631e-19)
(6.98194 0.265762 -2.72992e-17)
(6.20658 -0.0841625 -7.76277e-18)
(7.00271 0.17713 -4.84644e-17)
(6.99193 0.218637 0)
(6.99116 0.199566 1.03787e-18)
(2.08678 0.314642 0)
(6.93503 0.118914 -1.4004e-17)
(6.9451 0.107423 1.38321e-17)
(7.20068 -3.44651 7.15505e-18)
(6.90141 -2.93872 0)
(6.91236 -2.80118 3.06726e-18)
(7.42196 -0.386779 -7.03854e-17)
(7.19142 -0.0549014 0)
(8.30207 -0.0235868 0)
(6.56876 -0.0594268 -2.66748e-18)
(6.52117 -0.0510713 -1.9429e-17)
(6.83573 -0.0553326 2.73009e-17)
(4.57636 -0.261024 6.58755e-17)
(4.79057 -0.2609 0)
(7.52877 -0.406477 -8.11026e-17)
(7.47008 -0.378898 6.38865e-17)
(8.07679 0.0395975 -3.35343e-17)
(8.18898 -0.123286 0)
(5.9886 -0.171547 0)
(7.09123 -0.00510982 0)
(7.18548 0.403498 9.94367e-18)
(7.16326 0.35178 0)
(8.09513 -0.139816 0)
(8.29873 -0.105142 -2.296e-17)
(1.72227 0.551522 0)
(7.13749 -0.252693 -1.14751e-18)
(7.27663 0.00776827 0)
(4.54264 -0.743692 -3.18642e-17)
(7.22483 0.127368 -2.22804e-19)
(7.2342 0.0843922 9.75796e-18)
(1.01233 -0.085749 -8.19122e-17)
(3.66158 0.438314 1.57197e-17)
(3.51039 0.621536 -9.79587e-18)
(6.79248 0.218164 5.32269e-17)
(6.9971 0.0558007 -2.61762e-17)
(6.99211 0.0748489 -2.74858e-17)
(4.57499 -0.811622 -3.4288e-17)
(6.45566 2.07929 -2.11517e-18)
(6.12757 0.00236488 -3.64195e-17)
(5.99704 -0.0525118 0)
(2.67157 -1.20792 1.26982e-17)
(2.69796 -1.30431 -1.28698e-17)
(6.64998 0.0779733 -4.5247e-19)
(6.53869 -0.00675657 7.66647e-17)
(6.64 0.00805483 0)
(6.99929 0.0966103 5.64848e-17)
(7.00242 0.129972 2.02418e-18)
(2.28315 0.594748 0)
(6.96327 0.256315 -5.67634e-17)
(6.59605 0.246757 -5.68698e-17)
(6.56221 0.320138 -3.39116e-17)
(6.86103 0.24056 1.04002e-16)
(6.90011 0.241618 -7.48828e-17)
(6.91779 0.204637 -3.00977e-17)
(7.30332 0.0571767 -5.53125e-17)
(6.24954 -0.0251376 2.47936e-17)
(6.36974 0.0387878 -6.11659e-17)
(6.14423 -0.193026 -1.41379e-17)
(6.26401 -0.108652 -8.65488e-17)
(7.51655 0.0114971 0)
(7.66677 0.0773941 -2.21516e-18)
(7.18381 -0.140861 -1.99584e-17)
(7.88091 0.000582637 5.13656e-17)
(6.55256 2.15086 1.35934e-18)
(6.98254 0.141854 4.29942e-18)
(7.06736 -0.330847 0)
(7.10218 -0.279657 5.98228e-18)
(3.68823 -0.318274 0)
(3.95859 -0.343746 7.67606e-17)
(7.47398 0.194921 -5.0999e-17)
(7.8278 0.16117 -2.34028e-17)
(7.52771 0.122968 -8.22666e-18)
(7.44256 0.146241 5.71875e-18)
(5.61842 -0.130645 0)
(5.41778 -0.165034 0)
(3.38637 -1.51597 -2.15476e-17)
(3.19221 -1.52968 0)
(3.11645 -1.69884 -1.82141e-17)
(2.77082 -1.66429 -1.59261e-17)
(7.01673 0.055644 -8.28954e-18)
(6.72431 0.205293 0)
(6.80568 0.193185 0)
(7.52443 0.023473 0)
(7.85719 0.029032 -6.76083e-17)
(3.99704 0.230297 -2.91873e-17)
(4.19085 0.185048 2.4662e-17)
(8.36483 0.0870787 -1.50368e-17)
(8.23271 0.152842 -1.92978e-16)
(8.08734 0.0492609 -7.21844e-17)
(7.14226 0.0807971 0)
(7.70377 0.237288 0)
(7.02586 0.0786586 0)
(7.41382 -0.0527259 0)
(7.02185 0.184184 -4.80214e-16)
(4.90562 0.0303806 5.40957e-16)
(7.45413 0.172793 9.1358e-17)
(7.20574 -4.25813 0)
(7.21073 -4.01703 0)
(6.98795 0.0265466 -2.70862e-17)
(6.95155 0.0488286 -6.2918e-17)
(7.02166 0.0431757 2.06968e-17)
(6.93622 0.0632361 9.16207e-17)
(7.9236 -0.265076 6.42894e-17)
(4.95361 -0.0385433 -4.63614e-17)
(5.12189 -0.104153 -5.94162e-17)
(5.2924 -0.0138424 9.32699e-17)
(6.89217 0.126597 0)
(6.87982 0.149997 0)
(6.8492 0.186031 0)
(6.8711 0.17734 -3.07599e-17)
(6.82851 0.22004 0)
(7.00119 0.0644646 4.20106e-17)
(7.30946 -0.081613 5.79871e-17)
(7.02146 -0.138137 -4.93729e-17)
(7.59521 -0.37428 1.0951e-16)
(7.68557 -0.306219 -7.29823e-17)
(7.6624 -0.285336 -6.72326e-17)
(7.63709 -0.269423 0)
(7.46862 -0.285692 2.55258e-17)
(7.54272 -0.310988 -2.54523e-17)
(4.78312 -0.0796847 -2.24789e-17)
(6.92707 -0.0379951 -6.11018e-18)
(7.84062 -0.234131 2.39394e-17)
(4.93086 -0.419069 0)
(5.10875 -0.364507 -2.64615e-17)
(5.3152 -0.370067 -4.5807e-17)
(3.09681 0.439896 9.89553e-18)
(3.13434 0.497776 8.60776e-18)
(6.37773 0.100626 3.01327e-17)
(6.28249 0.131323 0)
(3.39329 -0.866664 -3.25332e-18)
(3.31038 -1.03485 0)
(7.69947 -0.0977293 -1.2067e-17)
(7.85495 0.0339241 0)
(7.78156 0.114198 2.4975e-18)
(4.21072 1.11252 3.52943e-18)
(4.14585 1.08337 3.89729e-20)
(4.95262 -3.48747 3.47784e-19)
(4.96062 -3.57863 -3.18342e-19)
(2.58394 -0.902256 0)
(4.21738 2.13854 -1.21713e-18)
(7.28324 0.451424 -5.01719e-20)
(5.7456 1.77419 0)
(6.12225 1.55575 7.60332e-20)
(5.89313 1.55981 -2.00389e-19)
(2.47764 0.43274 0)
(5.6503 -2.40696 -2.54047e-19)
(9.09516 1.11756 -9.54909e-19)
(7.41009 0.665993 2.29536e-19)
(8.42615 -0.20013 2.09285e-18)
(6.4375 3.29697 -6.37555e-20)
(2.58486 0.457339 4.24587e-18)
(4.89236 -4.36978 6.5491e-19)
(6.74896 -5.191 0)
(4.52985 -0.742727 0)
(9.03052 1.11074 0)
(4.8613 -4.26368 0)
(4.90077 -4.30136 0)
(6.03994 2.3222 5.43335e-20)
(6.04464 2.3301 0)
(6.0248 1.24731 1.30459e-19)
(6.59075 1.28286 3.8986e-21)
(6.59427 1.32448 -4.42586e-21)
(5.75584 1.69373 1.32216e-19)
(6.57871 -0.88032 6.72611e-20)
(6.60224 -0.972426 2.80701e-20)
(5.51004 -4.85682 6.90077e-19)
(5.91528 1.54008 -1.1309e-20)
(5.95082 1.48857 0)
(7.05835 1.34437 1.27547e-19)
(6.90433 1.12739 -6.88959e-21)
(6.91536 1.15951 -1.52293e-19)
(6.64448 1.31381 0)
(6.10274 -2.21623 0)
(6.09827 -2.1482 4.46056e-21)
(4.20162 -2.68333 1.44233e-18)
(6.04147 1.6817 9.90004e-20)
(6.03147 1.65461 -2.60974e-20)
(4.9491 -3.91076 0)
(1.51453 -2.02307 3.5204e-17)
(4.1221 1.97927 8.28706e-19)
(4.18296 2.02903 -1.44929e-20)
(2.50397 0.0279504 4.50647e-18)
(3.2954 -1.43973 -1.9539e-17)
(5.95662 2.62672 5.54574e-19)
(8.19086 0.93191 3.53553e-19)
(6.35257 -5.13313 -1.51056e-19)
(2.31318 -0.948515 -1.61934e-18)
(6.53336 2.36577 0)
(6.63474 2.5397 -2.11959e-20)
(5.77227 -2.59658 1.14949e-19)
(3.3958 1.3641 -1.72382e-20)
(6.73576 -5.12534 -2.31584e-19)
(6.75225 -5.10937 6.19719e-19)
(5.75392 -1.56079 0)
(6.4664 -1.20144 0)
(6.37204 -1.56024 -5.99548e-20)
(6.81891 2.93406 -2.00769e-19)
(6.65687 1.03526 -4.22143e-20)
(6.5286 -1.33075 4.48899e-21)
(6.25103 2.42669 0)
(5.18523 1.48963 0)
(7.81666 0.441041 0)
(5.67774 -2.55416 -7.34708e-20)
(3.37027 -4.02719 -3.96521e-20)
(3.5373 -3.80233 1.04272e-18)
(6.82218 -0.857566 0)
(6.83731 -0.970401 9.14917e-18)
(6.00482 -5.02285 -6.793e-19)
(6.77534 2.75668 -8.8825e-20)
(4.09551 -2.20398 9.1707e-19)
(7.3311 0.979963 -4.06531e-19)
(5.48681 -4.89967 0)
(6.38112 3.33961 0)
(6.32115 3.30549 -6.7189e-20)
(6.00171 2.67789 0)
(4.91319 -3.1911 -4.21928e-18)
(6.47613 3.70308 0)
(6.61409 2.8435 2.32955e-20)
(6.22164 1.58129 0)
(4.67998 1.36249 4.93495e-19)
(4.67117 1.30785 2.42811e-19)
(5.81803 1.32622 3.62601e-19)
(7.24578 1.03351 0)
(7.24026 1.07877 0)
(7.322 1.02828 4.01673e-19)
(5.38964 -2.63729 8.48547e-18)
(6.49543 1.5684 5.49335e-21)
(7.46925 -0.272972 0)
(7.45216 -0.185652 -7.45426e-20)
(2.27875 -1.97823 5.55085e-18)
(6.37343 1.37365 -2.10882e-20)
(6.39878 1.39359 0)
(2.65067 -0.129975 6.61692e-18)
(2.71003 0.0372879 0)
(7.785 -0.0277031 -6.51859e-19)
(7.77859 0.0282357 -4.35039e-19)
(6.13664 3.34621 -1.1949e-20)
(6.83967 -5.10978 2.81506e-18)
(4.61616 -0.898789 1.17643e-18)
(6.66171 2.43907 1.73393e-21)
(6.62798 2.73234 -8.29542e-20)
(6.30823 2.54505 1.71396e-18)
(6.96977 -0.473891 -1.03769e-20)
(2.60124 -4.37268 6.84418e-18)
(6.52447 1.35965 1.68444e-20)
(6.51676 1.32885 -8.74546e-21)
(7.43459 3.16597 3.54901e-19)
(6.48676 -1.37332 0)
(6.39817 -1.48762 3.81051e-20)
(5.19121 -4.77693 9.98523e-19)
(1.59273 -1.35857 -6.9591e-18)
(4.58949 1.86766 2.06732e-18)
(7.49391 -0.593056 6.46011e-19)
(5.32754 -2.90243 -1.7139e-19)
(5.33044 -2.98083 4.27885e-19)
(4.37155 1.90537 -9.06432e-19)
(4.25675 2.008 -1.22672e-18)
(6.54117 -1.2451 -3.9361e-21)
(6.52412 -1.19383 2.99743e-20)
(6.84896 -4.13577 0)
(7.44964 -4.7915 0)
(6.84656 -0.383728 1.41679e-19)
(7.38505 -0.173286 5.76436e-19)
(7.67371 1.12112 0)
(4.08581 1.1605 -3.42645e-18)
(6.88762 1.33142 0)
(6.98814 -3.02104 6.26641e-19)
(2.40032 -2.08657 2.12477e-17)
(7.06608 -4.14773 0)
(6.37142 2.37947 -7.35499e-20)
(4.82869 -4.30713 -2.327e-19)
(4.83515 -4.3356 1.00512e-18)
(6.17958 2.47733 0)
(6.20979 2.46761 -4.05282e-19)
(6.75733 2.33056 0)
(5.01384 0.277306 0)
(5.9753 1.19026 -7.70942e-20)
(8.49068 -2.53961 1.34432e-18)
(5.09444 -2.11307 0)
(5.83098 -2.51296 0)
(6.14135 1.41503 -8.14945e-20)
(6.92336 -4.68438 5.19783e-20)
(6.70612 -0.944483 1.9102e-17)
(6.23986 -0.987891 -1.23786e-20)
(7.18101 -5.24777 -2.17672e-18)
(7.26277 -5.2396 0)
(5.84564 1.96816 0)
(2.12767 -4.00866 1.06098e-17)
(3.53244 0.679917 -1.82298e-18)
(6.62745 3.42607 1.78429e-19)
(5.90884 -2.17871 8.19515e-20)
(6.00708 3.19433 0)
(4.60122 1.72956 7.58833e-19)
(4.68937 1.67995 1.38889e-18)
(6.44071 -0.382508 -1.09193e-19)
(5.70826 1.79942 2.48075e-19)
(6.31311 -1.30288 -7.25429e-21)
(6.32275 -1.38815 3.70204e-20)
(7.23721 1.34676 -1.62282e-19)
(6.04318 1.20083 -1.40184e-19)
(6.37401 1.31006 0)
(6.44443 1.2768 2.45472e-20)
(4.90023 -3.61665 0)
(4.79517 -3.68267 0)
(4.6654 -0.682154 0)
(2.63405 0.571991 -3.47269e-18)
(2.59799 0.535519 0)
(2.60645 0.681328 0)
(6.62305 0.161928 4.42302e-20)
(6.75105 2.72471 2.86717e-20)
(7.44159 3.21632 2.03381e-19)
(4.61812 -1.69791 0)
(4.58568 -1.73317 4.89797e-19)
(5.20232 1.46115 0)
(6.51228 2.39406 8.21821e-21)
(4.52068 2.07173 0)
(2.51015 -0.900471 4.59104e-18)
(5.10375 0.29643 1.52639e-18)
(5.13148 0.281931 -6.61441e-20)
(7.30119 0.859828 -3.71724e-19)
(6.80012 0.666014 8.46822e-18)
(6.65629 2.83279 3.10992e-19)
(5.02278 0.440682 0)
(5.02766 0.36473 0)
(7.12044 1.72226 -3.25868e-20)
(6.46533 2.39577 0)
(6.47975 -5.1472 0)
(5.88843 -0.206339 -9.20105e-21)
(6.64657 -5.18179 -7.64774e-19)
(5.94688 1.6395 -9.80532e-20)
(5.93539 1.6078 1.47674e-19)
(4.52529 -0.640677 -7.18872e-19)
(6.09105 -1.48451 3.09774e-20)
(6.55589 -5.04496 -3.36749e-19)
(6.5134 2.33133 3.11741e-20)
(6.54092 -5.09787 4.19535e-19)
(6.45741 0.895142 2.27501e-21)
(6.40656 0.908687 -4.31115e-20)
(4.42642 2.0119 -1.71853e-18)
(4.98661 1.3149 0)
(4.97538 1.36982 5.27613e-21)
(4.82083 -5.07829 5.33655e-19)
(6.46926 0.398327 0)
(6.34895 2.29669 1.79943e-19)
(5.58064 -4.89508 0)
(5.57093 -4.91675 7.21597e-19)
(4.90124 1.03145 -1.98629e-19)
(6.26841 1.44208 0)
(6.3346 1.43548 0)
(6.45795 2.29121 1.98857e-20)
(6.60627 2.36742 1.31839e-20)
(6.64925 2.39552 2.88531e-21)
(4.79702 -5.68126 -2.80325e-19)
(7.5083 0.756867 -3.06383e-19)
(7.6005 0.730511 0)
(8.41909 -2.5784 2.67286e-18)
(6.45283 -1.34884 -4.75406e-20)
(6.44526 -1.26534 -2.00722e-20)
(6.40215 -1.41518 1.04391e-19)
(5.67231 1.10135 5.79783e-20)
(5.67688 1.17342 0)
(5.80957 0.928292 0)
(5.79715 0.870631 0)
(6.59501 -0.357331 0)
(6.63111 -0.322724 0)
(8.05829 1.12517 5.32361e-19)
(5.63158 3.39138 1.75283e-19)
(6.71012 2.94663 1.70421e-19)
(6.7555 2.92532 0)
(7.1846 -4.69768 4.6138e-18)
(5.7201 0.012768 0)
(7.16952 -4.69642 0)
(5.03399 0.923369 6.24603e-19)
(6.47968 -5.12296 -4.70239e-19)
(6.38777 -5.11098 9.71666e-19)
(7.08595 -4.47032 2.5723e-19)
(5.75109 -1.76861 2.71232e-19)
(6.76291 -5.28782 0)
(6.43348 2.31153 4.35673e-20)
(6.39201 2.28836 0)
(7.29794 -1.53051 -3.51325e-19)
(7.28392 -0.861045 -5.78964e-19)
(6.45591 1.44131 1.27992e-20)
(4.95902 0.127026 0)
(6.71638 -4.86618 5.59882e-19)
(5.80316 2.78395 0)
(5.73515 2.7694 2.48375e-18)
(6.48373 -5.16568 -1.1191e-19)
(5.10192 0.679641 1.09122e-18)
(7.71496 1.18595 0)
(1.67366 -1.72099 0)
(6.48684 1.71124 0)
(6.4039 1.81122 0)
(5.82243 -1.76145 4.08879e-19)
(6.23136 1.62367 2.63341e-20)
(6.17222 1.64054 -8.90247e-21)
(6.49139 2.63314 1.02226e-19)
(6.45849 2.6576 -1.88119e-20)
(6.22682 1.13138 0)
(6.13577 2.47575 -2.74893e-18)
(8.41396 0.690483 0)
(8.27766 0.704216 1.38865e-18)
(5.85728 1.61768 0)
(6.08666 2.95917 0)
(6.11707 3.08805 3.66979e-20)
(6.22316 -0.797675 5.63994e-20)
(6.54756 3.06312 -7.74004e-20)
(6.52811 3.19501 0)
(6.04221 -1.30254 -1.87869e-19)
(7.07189 -0.615687 1.37202e-19)
(7.21519 -0.523083 4.02873e-19)
(5.97607 2.36057 -2.01249e-19)
(6.02363 2.3401 0)
(6.99384 1.09542 -5.75829e-21)
(7.95584 0.965074 -3.20606e-20)
(7.97128 1.02464 2.98092e-20)
(5.97311 -1.64426 -2.60415e-19)
(5.91499 -1.78007 0)
(2.06335 -1.1101 0)
(5.14243 -4.54223 -7.85384e-19)
(4.97142 -4.4672 9.24256e-19)
(6.30805 -1.69923 -1.48815e-20)
(2.83574 0.515174 0)
(6.76579 2.79712 -7.78171e-21)
(6.73376 2.81008 7.58997e-20)
(4.76275 -4.3551 0)
(4.6091 -4.23092 -2.09434e-18)
(6.0428 -1.60525 -2.02115e-20)
(6.05665 -1.50531 8.23634e-20)
(5.99062 -1.596 2.31211e-19)
(4.75307 0.901999 1.98458e-18)
(4.667 1.00062 1.16437e-18)
(6.58032 -5.07052 1.48149e-18)
(6.99911 0.784862 1.71293e-19)
(6.2302 1.04931 -5.51703e-21)
(6.41161 -5.09961 0)
(6.38681 -5.08347 0)
(6.46028 -5.10617 0)
(3.609 -3.60907 8.9727e-19)
(3.64627 -3.67375 2.51373e-18)
(4.1385 -0.995875 0)
(6.00973 -1.05383 -7.02055e-20)
(8.43809 0.0779451 -2.38045e-19)
(8.47 0.0406112 0)
(5.70927 -0.941748 -2.97276e-19)
(5.71573 -1.02354 1.91881e-19)
(6.81276 -5.13382 -1.86726e-18)
(6.78618 -5.12171 1.58353e-18)
(6.82143 -5.16104 0)
(4.8237 1.49236 8.3033e-19)
(4.78074 1.5954 6.43954e-19)
(3.59271 -3.44401 0)
(6.60974 -5.15841 -9.6966e-19)
(6.74601 3.1213 -4.06041e-20)
(5.94926 2.34185 4.12196e-18)
(5.24463 -4.72641 7.55375e-19)
(5.24727 -4.75639 0)
(2.57651 -3.23419 -8.56839e-18)
(7.5623 -0.383185 6.80605e-19)
(7.35355 0.442622 4.821e-19)
(7.48643 0.394079 1.5598e-19)
(5.9738 1.5572 -2.20258e-19)
(2.54152 -0.108133 -6.53139e-18)
(6.32375 3.19404 0)
(6.41401 3.19392 0)
(6.6759 -0.756608 -1.17029e-17)
(6.73495 -0.859683 0)
(6.33692 -3.41731 0)
(7.6334 -0.0961142 -6.80919e-19)
(7.6123 -0.0223877 1.00996e-18)
(7.21939 -0.773417 0)
(7.14439 -0.737919 -1.90246e-19)
(6.28062 2.5403 7.78064e-20)
(6.26873 2.54737 1.24606e-18)