/*--------------------------------*- C++ -*----------------------------------*\
  =========                 |
  \\      /  F ield         | OpenFOAM: The Open Source CFD Toolbox
   \\    /   O peration     | Website:  https://openfoam.org
    \\  /    A nd           | Version:  6
     \\/     M anipulation  |
\*---------------------------------------------------------------------------*/
FoamFile
{
    version     2.0;
    format      ascii;
    class       volScalarField;
    location    "900";
    object      nut;
}
// * * * * * * * * * * * * * * * * * * * * * * * * * * * * * * * * * * * * * //

dimensions      [0 2 -1 0 0 0 0];

internalField   nonuniform List<scalar> 
29884
(
0.276522
0.225844
0.122063
0.155995
0.15636
0.129646
0.193836
0.264109
0.213748
0.141145
0.153475
0.141699
0.15303
0.28775
0.28033
0.192093
0.287498
0.266677
0.279954
0.172793
0.27845
0.118572
0.142526
0.140649
0.144303
0.155026
0.194197
0.219199
0.150194
0.25385
0.148661
0.162951
0.19522
0.185293
0.143751
0.147362
0.249601
0.166574
0.179344
0.187572
0.231719
0.184851
0.176325
0.200848
0.183851
0.166647
0.175431
0.176195
0.136635
0.170881
0.167685
0.174262
0.193102
0.275259
0.263466
0.267719
0.187361
0.284471
0.262471
0.266819
0.198161
0.189882
0.13528
0.17105
0.166635
0.172806
0.280419
0.203926
0.302677
0.211415
0.141248
0.149598
0.143864
0.10938
0.318222
0.281306
0.234401
0.231315
0.22602
0.211589
0.180211
0.197709
0.11462
0.142312
0.127776
0.0971617
0.148765
0.156639
0.139129
0.0718907
0.144869
0.15665
0.100466
0.0633997
0.151738
0.000353236
0.139828
0.139901
0.149679
0.0660681
0.139776
0.139242
0.16963
0.177033
0.153337
0.196303
0.0779845
0.0764901
0.153764
0.138816
0.16258
2.78883e-05
0.1356
0.11954
0.141441
0.142051
0.149595
0.111178
0.147684
0.136854
0.139772
0.140993
0.161275
0.140062
0.138955
0.262173
0.225037
0.203269
0.301369
0.14767
0.143011
0.147253
0.254409
0.23755
0.134374
0.143608
0.165756
0.152025
0.163475
0.163624
0.155438
0.161947
0.173156
0.157118
0.170703
0.173783
0.160278
0.165424
0.178536
0.173853
0.17146
0.0946755
0.0830419
0.183208
0.248813
0.215342
0.198667
0.174802
0.22918
0.200959
0.188804
0.156036
0.15421
0.172846
0.000286448
0.000283292
0.204882
0.160445
0.139504
0.139437
0.212176
0.139207
0.139041
0.119855
0.120729
0.151734
0.143914
0.188992
0.142639
0.155877
0.14555
0.128956
0.131155
0.135104
0.117951
0.132047
0.1396
0.139233
0.155388
0.150251
0.155809
0.14146
0.136624
0.14353
0.146334
0.146719
0.141188
0.146816
0.151876
0.149792
0.218049
0.177356
0.153689
0.14232
0.15003
0.13619
0.144119
0.128564
0.140513
0.184669
0.174376
0.215485
0.219234
0.195065
0.257768
0.0479578
0.100901
0.0459903
0.112273
0.0389097
0.0369272
0.0565951
0.13749
0.119721
0.0853291
0.0345737
0.0564274
0.053995
0.0103663
0.0492037
0.0705309
0.0514913
0.0631852
0.0548304
0.0565384
0.0595118
0.0570142
0.138042
0.170539
0.0312369
0.0429815
0.000586915
0.0479388
0.042658
0.053429
0.123476
0.0592533
0.0500447
0.120572
0.0890792
0.0567932
0.0782671
0.11457
0.111328
0.0371468
0.0370834
0.0441466
0.0415288
0.10558
0.109977
0.0849581
0.102778
0.0299311
0.000883487
0.0824778
0.0480981
0.0566421
0.122826
0.122484
0.0475241
0.0872502
0.0886914
0.047082
0.0448656
0.0404655
0.0766605
0.0714046
0.0541071
0.0575068
0.0376286
0.172084
0.0642282
0.129439
0.0904327
0.138254
0.116792
0.116551
0.045434
0.000229244
0.137791
0.0485968
0.0624783
0.0626245
0.0340732
0.0541659
0.0545799
0.108506
0.0627678
0.0637533
0.0459836
0.0866344
0.0586471
0.0606257
0.0597365
0.0536595
0.0595718
0.0753161
0.131602
0.111163
0.112097
0.11282
0.11032
0.0418891
0.0242197
0.0260492
0.0566401
0.0566282
0.0590993
0.0653064
0.0588555
0.0767635
0.0637069
0.0584529
0.058605
0.0584819
0.0895334
0.0408192
0.0419278
0.0440596
0.0389091
0.111233
0.112773
0.112913
0.111313
0.0470111
0.0443897
0.137694
0.10965
0.0476501
0.0458612
0.0579237
0.121216
0.0421318
0.111638
0.135573
0.0465073
0.0504457
0.0487594
0.0481334
0.0721542
0.0713486
0.0652671
0.0872106
0.0881553
0.0858022
0.0624982
0.05698
0.0541006
0.0552385
0.057607
0.0633723
0.073726
0.132658
0.121297
0.109961
0.110145
0.120517
0.132955
0.000466537
0.0403671
0.0575949
0.0574205
0.136887
0.144201
0.129358
0.100106
0.0955458
0.0593963
0.0551765
0.0570117
0.0542076
0.117143
0.126809
0.122613
0.13149
0.0496843
0.0536601
0.0516553
0.0515464
0.0890106
0.0852341
0.0835302
0.0911433
0.0557338
0.056865
0.0570647
0.0512901
0.0505202
0.0524019
0.0475469
0.0832071
0.0709023
0.0922921
0.0847462
0.088108
0.0897002
0.0307473
0.137252
0.138474
0.139454
0.138709
0.0432821
0.0460288
0.047629
0.0468874
0.044897
0.0594377
0.0853278
0.0349265
0.040355
0.0427246
0.0255448
0.0532241
0.0566405
0.0503487
0.0717279
0.0793939
0.0738092
0.0763057
0.0499909
0.0552316
0.0530427
0.0520913
0.129952
0.0641716
0.061738
0.0663536
0.0601701
0.0567017
0.060041
0.0559743
0.0584974
0.0585372
0.0558348
0.151301
0.149967
0.135422
0.0588524
0.0577068
0.0586716
0.0574404
0.122044
0.137914
0.0753534
0.0849948
0.130474
0.145149
0.139288
0.130518
0.172525
0.00586219
0.124253
0.125669
0.0756986
0.0501866
0.0515317
0.0529809
0.0492237
0.081575
0.0905004
0.0864883
0.0860405
0.137945
0.137759
0.138014
0.139672
0.139611
0.165594
0.151065
0.157453
0.158805
0.140573
0.144545
0.142473
0.142401
0.0419916
0.0399792
0.0383579
0.0428502
0.104125
0.102974
0.106614
0.0446829
0.0418837
0.0419261
0.0443776
0.136941
0.134691
0.136195
0.000611721
0.0043782
0.138673
0.0106851
0.119814
0.139543
0.138718
0.000841913
0.00124247
0.139035
0.139055
0.139226
0.138866
0.0818472
0.138516
0.136134
0.000243875
0.000285066
0.137315
0.050203
0.229768
0.139319
0.256079
0.126243
0.140682
0.138848
0.000605174
0.141318
0.134093
0.140301
0.137787
0.0629848
0.13571
0.137805
0.123025
0.134646
0.144404
0.129553
0.124381
0.170247
0.210745
0.240686
0.108006
0.108985
0.139052
0.139033
0.13975
0.139592
0.130096
0.0056531
0.128398
0.121726
0.104704
0.139125
0.126587
0.139115
0.139096
0.139063
0.0027088
0.138411
0.138626
0.0595364
0.069953
0.0709804
0.122476
0.243796
0.209356
0.13242
0.128507
0.130287
0.101874
0.107129
0.127565
0.128316
0.184406
0.204705
0.128506
0.252155
0.138244
0.13834
0.253107
0.206903
0.000853976
0.126453
0.261532
0.0960826
0.141819
0.142991
0.000364453
0.0761097
0.0697917
0.137487
0.139575
0.139367
0.134189
0.12107
0.131276
0.129552
0.0396906
0.0396022
0.144001
0.141424
0.144951
0.139526
0.139268
0.000936219
0.138928
0.137331
0.136084
0.13781
0.138068
0.138288
0.183993
0.133329
0.136234
0.130139
0.132725
0.160398
0.166211
0.199388
0.177074
0.121009
0.137559
0.133316
0.141308
0.159631
0.15094
0.145757
0.159878
0.150041
0.146682
0.123316
0.119433
0.0564224
0.0518695
0.0479649
0.0385558
0.139018
0.14065
0.142122
0.253545
0.194358
0.0870566
0.0933762
0.200728
0.171933
0.1968
0.145542
0.159303
0.153746
0.164485
0.234685
0.189104
0.181525
0.0556984
0.0567962
0.138767
0.138571
0.139562
0.138293
0.156924
0.111338
0.114678
0.118353
0.137582
0.138188
0.13756
0.137646
0.137239
0.139675
0.162032
0.153456
0.13284
0.1395
0.142418
0.145064
0.135552
0.136139
0.212443
0.268013
0.237966
0.109178
0.113544
0.116002
0.0041876
0.00458702
0.136139
0.133537
0.0651166
0.0608956
0.165911
0.168764
0.162041
0.0341727
0.0322254
0.0904254
0.0895819
0.0376558
0.0394594
0.0423749
0.0827901
0.0749836
0.080722
0.0291548
0.102583
0.0059367
0.0410005
0.0172876
0.0607053
0.0346109
0.0112236
0.0687365
0.0462115
0.00761978
0.0115229
0.0123016
0.0894587
0.0897965
0.0769074
0.0619623
0.0622484
0.0829407
0.0579784
0.0569788
0.0271146
0.0802078
0.0790959
0.052799
0.0545934
0.0545377
0.0611954
0.0903186
0.0904916
0.0436766
0.0775296
0.0776038
0.0203613
0.00279868
0.0358369
0.0377302
0.0327425
0.110541
0.0946187
0.0249744
0.0545574
0.0265215
0.0814668
0.0767313
0.100391
0.0102977
0.0666396
0.0663479
0.100825
0.0646669
0.0733185
0.0611722
0.0586963
0.0625834
0.09426
0.0750199
0.0314133
0.101974
0.0207672
0.0247013
0.106119
0.0972331
0.0428635
0.067178
0.0346894
0.0444379
0.0255804
0.0603975
0.0624749
0.0924712
0.00149592
0.0452558
0.0710015
0.0728732
0.0517039
0.0506274
0.0831447
0.0464514
0.0468538
0.0450504
0.00147752
0.0668539
0.0352044
0.0359269
0.0219164
0.0675852
0.0672566
0.0404187
0.0420956
0.0300492
0.0306124
0.0636398
0.0654472
0.0526331
0.0761043
0.0733582
0.104465
0.0450512
0.00830297
0.0641898
0.0642211
0.0351268
0.0652167
0.0708636
0.017725
0.00162877
0.0499583
0.0335467
0.101412
0.100965
0.0428143
0.0397404
0.0614387
0.0621994
0.053445
0.00928656
0.0486349
0.0374136
0.0372985
0.0308443
0.0563443
0.0432442
0.00171933
0.0308386
0.0885974
0.00978476
0.00973643
0.0958389
0.0958785
0.11874
0.0759211
0.0785343
0.0089611
0.0994057
0.0881756
0.0737382
0.0610646
0.0550736
0.0767204
0.0507224
0.0479755
0.0819075
0.00666423
0.0135304
0.0516615
0.0973724
0.0703078
0.0499
0.0533548
0.0628317
0.0829794
0.0748425
0.0746127
0.0488557
0.076171
0.0672386
0.0652165
0.0877056
0.0835304
0.0548715
0.0361673
0.0347549
0.0341005
0.054994
0.0687699
0.0337504
0.0644663
0.0618803
0.0763821
0.0826306
0.0489606
0.0345937
0.0842175
0.0860219
0.0443312
0.136201
0.107554
0.0742394
0.0761896
0.054398
0.0849094
0.0596021
0.0914248
0.0663432
0.0795814
0.0798453
0.0456009
0.0885755
0.0338799
0.0819746
0.0625287
0.0628316
0.0640853
0.0449978
0.0658033
0.0647438
0.0611223
0.135305
0.0871308
0.0288189
0.0279976
0.0615579
0.0706421
0.0691796
0.0833828
0.0783554
0.0766617
0.0491022
0.0395944
0.0372201
0.00985291
0.0672105
0.0669858
0.0703485
0.08817
0.0874174
0.0854635
0.0863637
0.0563759
0.0548913
0.0284369
0.0635834
0.0646093
0.0636934
0.0557149
0.0970152
0.0154184
0.0696288
0.0601421
0.0566957
0.02297
0.100933
0.0681939
0.0847869
0.0856455
0.034252
0.0367507
0.0665439
0.0742981
0.0357604
0.0867636
0.0870731
0.0592737
0.0781768
0.0367211
0.00504098
0.125985
0.124284
0.0994147
0.0730429
0.0745126
0.081915
0.0829479
0.0699569
0.103481
0.019293
0.0227329
0.0815654
0.0793622
0.073212
0.0762448
0.0658318
0.0618709
0.0897375
0.0419688
0.0392265
0.0893958
0.08979
0.0523756
0.0302238
0.0301198
0.0944236
0.0963452
0.0160916
0.0186494
0.0133955
0.0784246
0.0444269
0.066577
0.0674658
0.00756893
0.00544898
0.0914843
0.0903898
0.0932619
0.0538472
0.0500543
0.0635231
0.0499868
0.0696097
0.0578486
0.0572797
0.0595912
0.0256086
0.0270004
0.128373
0.0904505
0.0180488
0.017225
0.101658
0.101498
0.0662992
0.0665408
0.0666535
0.0579922
0.0565679
0.0040928
0.0647991
0.0581913
0.105805
0.019992
0.0197052
0.016921
0.033127
0.0408961
0.038143
0.0786825
0.0350094
0.0942211
0.095542
0.115581
0.109773
0.0656475
0.0329885
0.0337068
0.0384438
0.0400524
0.10055
0.0999857
0.0987536
0.051424
0.0561903
0.0604711
0.0205974
0.0299244
0.0872137
0.0389388
0.0400364
0.0621231
0.0647591
0.0907427
0.0549974
0.0563029
0.0604051
0.0523621
0.0977879
0.0991474
0.0966672
0.0993034
0.101711
0.0586075
0.0964523
0.0086637
0.0345404
0.0397755
0.0242962
0.0249575
0.0728931
0.0825317
0.0609519
0.063159
0.0759812
0.076844
0.0726103
0.0739332
0.0701527
0.0474685
0.0461211
0.0333271
0.0541063
0.0332854
0.0658427
0.0664634
0.0651327
0.00681795
0.064696
0.10607
0.103467
0.0673275
0.0662187
0.0679986
0.0913577
0.0946982
0.0409905
0.0432665
0.0425809
0.0415933
0.0582389
0.0539603
0.0522677
0.0949043
0.0943946
0.0942164
0.0884123
0.0882874
0.0297439
0.039188
0.035258
0.0482321
0.0452241
0.0338607
0.105426
0.062368
0.0649517
0.0743654
0.106912
0.104008
0.0941569
0.0965182
0.0570006
0.0548973
0.0571661
0.042428
0.0410769
0.0433463
0.0851483
0.0479134
0.0789061
0.0782914
0.104496
0.0431393
0.0829477
0.0830554
0.0830571
0.0367363
0.000951477
0.0624608
0.0579565
0.056171
0.012085
0.000402779
0.102066
0.0512721
0.107829
0.0522891
0.0542115
0.0779109
0.0715464
0.0792319
0.112493
0.0150945
0.0762152
0.0758735
0.0785823
0.0506762
0.101075
0.0997466
0.102018
0.100386
0.102211
0.000665759
0.0682756
0.0659745
0.10003
0.102769
0.0979988
0.000757279
0.000791228
0.0920224
0.0370242
0.0317914
0.0567145
0.059511
0.0590269
0.057055
0.0876047
0.0461335
0.0449528
0.0671285
0.00060483
0.0765724
0.077451
0.0803031
0.0790837
0.102021
0.0258597
0.0643086
0.0627857
0.0982473
0.0985355
0.0279559
0.0859277
0.0866157
0.0865803
0.0773817
0.0765624
0.0888587
0.0871395
0.0966106
0.0542953
0.00197762
0.0433149
0.0608973
0.000565705
0.0345863
0.0916226
0.0681274
0.00883324
0.0688587
0.0666763
0.0850565
0.0877626
0.0875221
0.0835102
0.0588951
0.0597337
0.0561652
0.0774956
0.0786787
0.0770528
0.082543
0.0824751
0.00093967
0.0237981
0.000504117
0.0734861
0.00805446
0.136007
0.136185
0.136321
0.135955
0.0945532
0.0712522
0.0703341
0.137802
0.138134
0.0767773
0.0786185
0.0770448
0.0768565
0.0510856
0.095875
0.0682436
0.0704682
0.0934512
0.0896096
0.0509887
0.0478376
0.0486424
0.00053409
0.0530662
0.0549131
0.0561075
0.0521497
0.081801
0.0823743
0.0324714
0.0935391
0.0950658
0.0814436
0.0617812
0.0624366
0.060573
0.0464313
0.044529
0.0481362
0.0467584
0.0457648
0.128004
0.0624255
0.0457869
0.0443845
0.0943803
0.0957623
0.0925509
0.0925602
0.0933061
0.0918432
0.0803418
0.0795365
0.0891994
0.0626031
0.0632034
0.061629
0.0983731
0.0961392
0.000314872
0.0563966
0.058258
0.0291178
0.025124
0.000438839
0.000580526
0.000570131
0.0397433
0.0391426
0.0159016
0.0163122
0.111938
0.0963297
0.103223
0.0673272
0.0391175
0.0270517
0.0259683
0.0296234
0.0618651
0.0618267
0.0622979
0.0615782
0.000443456
0.000760828
0.000705489
0.00116256
0.00934859
0.0173061
0.0530097
0.051632
0.000812075
0.0463776
0.0257759
0.092099
0.0918649
0.0944161
0.0910281
0.0917242
0.0907293
0.105231
0.106791
0.104105
0.102376
0.0832609
0.0602095
0.0616394
0.0595926
0.0612216
0.0626734
0.0588895
0.116318
0.104962
0.110022
0.0943953
0.0953057
0.0953696
0.0872736
0.0747003
0.0752317
0.0737763
0.0678883
0.0721293
0.0682505
0.0729309
0.0720336
0.0726164
0.00041145
0.000689155
0.0892877
0.0901899
0.089705
0.0897393
0.035313
0.0688308
0.0689894
0.0677242
0.0917025
0.0930096
0.0934309
0.0911532
0.0568293
0.0574225
0.0557455
0.178747
0.0383412
0.0663886
0.0663198
0.065928
0.0668199
0.0783092
0.0843059
0.0813988
0.0835297
0.0994425
0.0963603
0.0272184
0.128377
0.0333091
0.0319087
0.105216
0.00036245
0.0616537
0.067655
0.0964382
0.09724
0.0947521
0.0834836
0.0844838
0.0101789
0.0439719
0.0435054
0.0453043
0.0508135
0.0525943
0.048143
0.0559545
0.0583088
0.0577912
0.00562519
0.00576881
0.0600679
0.060464
0.0645101
0.0639046
0.0655152
0.000337759
0.0570056
0.000538399
0.0932833
0.0605246
0.0582601
0.060211
0.0578804
0.00205463
0.0555046
0.0574867
0.0558394
0.0957336
0.0726264
0.0842708
0.0825191
0.0645265
0.0639723
0.0634982
0.064904
0.0427067
0.0396557
0.0416698
0.0403545
0.059375
0.0579853
0.0596346
0.0595493
0.00111902
0.00628377
0.0899096
0.0903277
0.0895495
0.0906271
0.0657797
0.0681382
0.068219
0.0345812
0.0628799
0.0625734
0.0639661
0.0831385
0.0811177
0.0832333
0.0949144
0.0968737
0.0955518
0.0968399
0.0981348
0.0543313
0.0522726
0.0520441
0.0544657
0.103168
0.10496
0.104285
0.103704
0.0504069
0.0488683
0.0524891
0.0520186
0.0509263
0.0987794
0.0993014
0.0972186
0.0568207
0.0541917
0.0702979
0.071837
0.120632
0.119038
0.119336
0.120411
0.0817062
0.0782414
0.079343
0.0576994
0.0619062
0.0496907
0.0471327
0.0466231
0.029595
0.0810831
0.0779208
0.0605744
0.0683749
0.0683653
0.050742
0.0862326
0.0881856
0.0879826
0.0862631
0.00116815
0.0663573
0.0685438
0.0664028
0.0684055
0.137038
0.137198
0.068251
0.0656892
0.0662825
0.0676104
0.0530087
0.053606
0.0513678
0.042421
0.0455228
0.0415557
0.059859
0.0627006
0.060445
0.0621657
0.0787426
0.0925927
0.082623
0.0438994
0.0432789
0.0444134
0.0427028
0.00797147
0.102779
0.00783099
0.00780624
0.0925989
0.0918702
0.0919374
0.0924907
0.0635605
0.0644279
0.0641196
0.101777
0.101036
0.102051
0.100821
0.0846863
0.0675403
0.0680269
0.0673044
0.0582872
0.0551733
0.0566472
0.056773
0.0421465
0.0810656
0.080324
0.0190783
0.0231594
0.0639818
0.0619284
0.0631938
0.00111359
0.0508664
0.100448
0.0742045
0.0736601
0.0756168
0.091882
0.0376804
0.0360069
0.0385239
0.110951
0.108308
0.109713
0.0648803
0.0650719
0.128533
0.129575
0.0546946
0.0554041
0.0565984
0.0990324
0.0953032
0.0891895
0.0211575
0.0256188
0.0235676
0.0188262
0.0183789
0.0117416
0.00970913
0.0150829
0.0643073
0.0751427
0.0770867
0.065979
0.0644241
0.0680245
0.0962586
0.094576
0.0676256
0.0675586
0.0922194
0.0927277
0.0549462
0.0573767
0.104075
0.118833
0.0965467
0.0973892
0.083571
0.0859288
0.082117
0.0856981
0.0876006
0.0866214
0.0229208
0.0274577
0.082288
0.0790731
0.0806356
0.0807251
0.0737085
0.0637428
0.0652911
0.0657738
0.0446475
0.0440167
0.0459397
0.0426232
0.0008383
0.0672638
0.0683463
0.069279
0.0738345
0.0696265
0.0433459
0.0414802
0.0940883
0.0925074
0.0952516
0.076044
0.0822568
0.0679422
0.0683471
0.068511
0.0679097
0.0446211
0.0923677
0.0913224
0.0558095
0.0554872
0.0570429
0.054324
0.062391
0.0630335
0.0614685
0.0103607
0.0113597
0.00870476
0.0828489
0.0844271
0.0803733
0.0433349
0.04176
0.0675494
0.0646094
0.0560518
0.0567344
0.0579098
0.0874568
0.0550555
0.0571355
0.0573142
0.0796055
0.0416556
0.0397715
0.0405469
0.040873
0.111186
0.109294
0.109432
0.110954
0.0735488
0.0618232
0.0625011
0.0615001
0.0630804
0.0981361
0.0925272
0.0921742
0.0932236
0.0915745
0.0909028
0.0918698
0.0923346
0.0905725
0.0345239
0.0681746
0.0685392
0.0681274
0.0686483
0.000520201
0.0105943
0.0707739
0.0702602
0.0795757
0.080987
0.0589576
0.0582989
0.0599128
0.0651735
0.0645474
0.00639411
0.00769175
0.0666424
0.0642258
0.0654393
0.0654719
0.0783933
0.0885441
0.0875612
0.088156
0.00807657
0.0621735
0.0615777
0.0631841
0.0605721
0.041341
0.0427447
0.0412767
0.0426943
0.0845101
0.0841457
0.0835087
0.0786822
0.0371766
0.0359896
0.0352475
0.0377527
0.0275847
0.0287134
0.0674789
0.102501
0.102435
0.102797
0.0514934
0.0540117
0.0533152
0.0520539
0.0820849
0.082501
0.0703553
0.0719736
0.0724655
0.0697403
0.0444579
0.06252
0.062879
0.0429908
0.0235675
0.0210819
0.055123
0.0575148
0.0804738
0.0797574
0.081481
0.0986386
0.0979982
0.0976281
0.0315809
0.0303208
0.0310358
0.0721445
0.073737
0.0740505
0.0718052
0.0347212
0.0468749
0.0466491
0.0481581
0.0453889
0.00400944
0.035967
0.0518061
0.0546146
0.0703358
0.0717059
0.0723404
0.0695889
0.128199
0.0896029
0.088866
0.0889019
0.0895111
0.0724488
0.0746751
0.0711872
0.0502284
0.091568
0.0909356
0.0915824
0.0650401
0.0691618
0.0479015
0.0517568
0.0500885
0.0635785
0.0631628
0.0641304
0.100771
0.0366507
0.0769589
0.0505625
0.0464683
0.0885923
0.0879064
0.0912499
0.0175158
0.0147416
0.0192859
0.0867153
0.0657777
0.0664773
0.0655387
0.047111
0.0457605
0.0876057
0.0852209
0.0858795
0.0870628
0.0912658
0.0907317
0.0437049
0.0456498
0.090845
0.0891258
0.0908971
0.0888426
0.12396
0.124378
0.0588588
0.0894917
0.0893194
0.0892021
0.0731688
0.074139
0.0729228
0.0190142
0.0516094
0.0511691
0.0533038
0.0496835
0.063227
0.0668237
0.0653519
0.0646002
0.0506784
0.0479478
0.049574
0.130827
0.115239
0.129011
0.119988
0.0275978
0.0802136
0.0792789
0.114055
0.115673
0.0468869
0.0460235
0.0454522
0.0473981
0.0908134
0.0900953
0.12049
0.11867
0.0547809
0.0809295
0.0834923
0.0831768
0.0405726
0.0369796
0.0397419
0.0369554
0.0277298
0.030405
0.0590467
0.06063
0.0594653
0.0474416
0.0426575
0.0456164
0.0449809
0.0744944
0.0734536
0.108602
0.0986012
0.0584484
0.0605302
0.0597938
0.0588068
0.0876392
0.0309507
0.0329161
0.0348875
0.0296873
0.107706
0.105941
0.108641
0.033461
0.0349841
0.0340335
0.0345375
0.033442
0.0350983
0.0744255
0.0774611
0.0391728
0.0407379
0.095529
0.0649654
0.0900741
0.088871
0.0826993
0.00412307
0.100575
0.0985225
0.0993097
0.0541073
0.0268556
0.054067
0.104871
0.0948472
0.0909124
0.111946
0.0787806
0.0796321
0.0787419
0.0530848
0.0546084
0.000272578
0.0534602
0.047597
0.114942
0.112995
0.113605
0.11437
0.0780086
0.0803351
0.0802874
0.0779473
0.102721
0.10371
0.102023
0.104282
0.0367639
0.0373316
0.0380187
0.03606
0.0903153
0.0898958
0.0912219
0.0888835
0.0459366
0.0473884
0.0437735
0.0288569
0.0351453
0.0431142
0.0658176
0.0645548
0.123491
0.122311
0.0553455
0.026052
0.0942643
0.0947994
0.095216
0.0468426
0.0673523
0.0661386
0.0647775
0.068509
0.101815
0.0863923
0.0843217
0.0844809
0.0861795
0.0478626
0.0444748
0.0466932
0.0453899
0.0881751
0.0877589
0.0884267
0.0874744
0.0760455
0.0744576
0.0748884
0.0755981
0.0976193
0.0969227
0.0982956
0.0961976
0.0502252
0.0469791
0.0495085
0.0475425
0.0639338
0.0616816
0.0610066
0.0598596
0.0598731
0.0606759
0.114444
0.117227
0.115671
0.0874222
0.067387
0.0665769
0.0667077
0.055159
0.0529163
0.0545686
0.0520217
0.0515439
0.0507104
0.0503391
0.0242657
0.0947423
0.0938421
0.000257641
0.0644752
0.0666632
0.064465
0.0665409
0.0856305
0.070028
0.0814653
0.0598111
0.00434577
0.00422442
0.00488973
0.0646034
0.0652912
0.127947
0.061571
0.0609059
0.0541661
0.0530569
0.0540494
0.0579631
0.0593019
0.0585142
0.0591659
0.0692787
0.0692867
0.0691026
0.0922295
0.0953848
0.0406839
0.0425331
0.0414154
0.000225632
0.0577439
0.0583175
0.109896
0.10838
0.0679697
0.0692753
0.0664784
0.0705933
0.0299558
0.0329621
0.0344114
0.0367496
0.118741
0.11758
0.0616855
0.0606185
0.0623977
0.060077
0.0570003
0.062134
0.060944
0.110592
0.108022
0.109168
0.109377
0.0855081
0.0846578
0.0858282
0.0841955
0.0827384
0.0841219
0.083991
0.082771
0.0754785
0.0758513
0.0745728
0.0316633
0.0323403
0.0326162
0.0312836
0.0529785
0.0548398
0.11132
0.0314091
0.0359096
0.0347041
0.00124524
0.0542291
0.0521729
0.0534803
0.0745369
0.0728518
0.0808832
0.0817742
0.0805496
0.0820132
0.0393383
0.035487
0.0863768
0.0860899
0.0855744
0.0868636
0.116595
0.117572
0.118035
0.116061
0.0530182
0.0547011
0.052583
0.0553485
0.0701634
0.0700557
0.0704457
0.0561669
0.0572136
0.0581347
0.05522
0.0786193
0.0790838
0.0780226
0.0535936
0.0881446
0.0873882
0.0882722
0.0873306
0.0250358
0.0429624
0.0174246
0.0112386
0.0904389
0.00459515
0.00327923
0.00300867
0.0289561
0.0529806
0.0129203
0.000584352
0.000794382
0.000561212
0.000291388
0.0363039
0.000382084
0.000442798
0.0103496
0.0102093
0.05871
0.011295
0.0102907
0.138818
0.0168449
0.128836
0.0145451
0.0302291
0.0302199
0.0123669
0.000482498
0.0811173
0.013912
0.00596809
0.00631761
0.00975818
0.132915
0.137049
0.0160922
0.0172774
0.036963
0.00282523
0.0884016
0.137258
0.094278
0.122568
0.1191
0.0707557
0.00335517
0.0169
0.000392844
0.000586586
0.000558891
0.0244796
0.0229891
0.00680683
0.0246465
0.00266364
0.00315557
0.0229705
0.00056716
0.0860467
0.0433181
0.138668
0.138547
0.000463069
0.0276794
0.0259712
0.01295
0.00764241
0.0316711
0.0313062
0.0323552
0.0723381
0.0751566
0.00675934
0.0763923
0.137528
0.137183
0.0269204
0.000529598
0.00507404
0.00415428
0.0731861
0.0120533
0.0222749
0.000489174
0.0262781
0.0235966
0.13016
0.00300831
0.0152326
0.0131807
0.138393
0.114123
0.00420228
0.0801442
0.0377361
0.00774125
0.135181
0.0358976
0.00231401
0.0351157
0.034024
0.00892072
0.0203053
0.0211261
0.0228965
0.0185638
0.026327
0.0302732
0.0312239
0.0364113
0.00173218
0.0196969
0.0451381
0.136157
0.0173423
0.118911
0.0227178
0.153732
0.000548085
0.0220196
0.0209632
0.0219717
0.0987719
0.0332026
0.0341218
0.0056717
0.000368963
0.00142847
0.00258333
0.0754232
0.0730604
0.0182672
0.0284362
0.0051052
0.00635058
0.00254603
0.0298519
0.0316732
0.172058
0.00208469
0.13722
0.137634
0.0535676
0.0170102
0.0350089
0.0883033
0.0866814
0.0344346
0.0329176
0.052602
0.0356471
0.00825453
0.00580888
0.051512
0.0176213
0.023308
0.0490121
0.0497608
0.0470517
0.00520491
0.00838651
0.0713898
0.070686
0.0460323
0.042391
0.0276962
0.0343729
0.0354763
0.0787043
0.00385729
0.00394195
0.0466322
0.138572
0.0052323
0.00693905
0.00604395
0.00313183
0.0042216
0.00584457
0.00774271
0.0179073
0.00383931
0.00616905
0.00827951
0.00424896
0.00575635
0.0303848
0.0297013
0.0465574
0.00644955
0.00899349
0.0354842
0.000483437
0.000788013
0.0305983
0.00299273
0.0302268
0.0271563
0.0241566
0.0231123
0.00782378
0.00860542
0.00833527
0.0107941
0.123322
0.00744364
0.078145
0.077231
0.0770268
0.0538766
0.0400894
0.00625788
0.0198659
0.00689932
0.13124
0.0381059
0.00253844
0.0117838
0.0110423
0.0134872
0.0100285
0.00680146
0.140006
0.0349036
0.0375276
0.00604605
0.00473111
0.0807316
0.0681829
0.178082
0.172911
0.00738058
0.0221835
0.138785
0.0341434
0.0339948
0.00052972
0.00778249
0.0156276
0.117559
0.120111
0.0119587
0.0637551
0.00947078
0.00821496
0.00934897
0.00439009
0.0588191
0.0642549
0.0673359
0.00139643
0.0350239
0.154465
0.152536
0.114802
0.0853956
0.0214848
0.0489291
0.0460742
0.0669151
0.139189
0.139066
0.0331538
0.137506
0.00173029
0.00217646
0.00912623
0.0250671
0.0122208
0.0407762
0.0408492
0.0393544
0.0394285
0.0043725
0.00294583
0.00203635
0.17814
0.0755483
0.0115739
0.120907
0.129673
0.13022
0.0483141
0.0719072
0.0698675
0.166205
0.148149
0.00140857
0.00776834
0.0826603
0.0805827
0.00655454
0.00598558
0.0390397
0.0383833
0.0814294
0.0795212
0.0789927
0.0827525
0.0416421
0.0237839
0.0220835
0.0906911
0.0363964
0.0360779
0.0462918
0.0285954
0.035412
0.0202251
0.00475782
0.0370916
0.00474157
0.163206
0.0105671
0.0118021
0.0254603
0.0577452
0.0349163
0.0249485
0.100847
0.0938327
0.109297
0.025929
0.0848152
0.0230542
0.13814
0.0453068
0.0017406
0.037187
0.00358285
0.00369972
0.137746
0.0303045
0.0301853
0.0232248
0.137716
0.118253
0.126257
0.0325438
0.0512144
0.0525818
0.0783177
0.0791529
0.0489178
0.0330456
0.0359085
0.0338104
0.0354504
0.100945
0.0876544
0.136076
0.136605
0.0931885
0.0929175
0.0673659
0.00719485
0.00617324
0.0713457
0.0165025
0.136742
0.0637217
0.0657901
0.0676686
0.0602455
0.0584259
0.05974
0.130359
0.146968
0.139243
0.0699947
0.0683724
0.069088
0.122447
0.0093552
0.0424421
0.0364183
0.0153335
0.0150067
0.0986612
0.0307248
0.0516076
0.0554632
0.033004
0.170486
0.0171269
0.0384557
0.0191588
0.029077
0.010427
0.0213887
0.0219083
0.12169
0.124139
0.123077
0.0351882
0.0362146
0.0116463
0.0677274
0.0209697
0.0228966
0.0327007
0.0293014
0.0288379
0.0556997
0.0717446
0.0487658
0.0510094
0.132935
0.12696
0.00172377
0.0022834
0.138693
0.0229459
0.00840199
0.0124471
0.118999
0.11749
0.13856
0.109728
0.138666
0.132969
0.132205
0.0201504
0.033971
0.126094
0.126981
0.12487
0.125491
0.0559684
0.0545872
0.096067
0.0982705
0.125726
0.123493
0.00321043
0.11883
0.117721
0.0489037
0.138916
0.138746
0.138691
0.110991
0.107385
0.137675
0.139695
0.138334
0.0752305
0.0364849
0.0387921
0.0394539
0.0578502
0.058197
0.0585876
0.17519
0.174832
0.0879506
0.0418077
0.0436865
0.178356
0.175771
0.0501129
0.0505898
0.0430854
0.0312018
0.00036072
0.00257096
0.0794249
0.0147633
0.0175283
0.0187567
0.0760235
0.000789583
0.00136203
0.0697372
0.0717839
0.0228432
0.00802035
0.0104955
0.0121924
0.00557908
0.0362495
0.037003
0.0403419
0.11318
0.11491
0.0244495
0.0141209
0.015136
0.00618782
0.00702824
0.129495
0.127678
0.157667
0.165611
0.169009
0.109184
0.0578873
0.0571409
0.0508728
0.0542027
0.0531852
0.075441
0.0871172
0.0470742
0.0449593
0.0261272
0.0276994
0.138682
0.138608
0.242662
0.227082
0.0422421
0.00801117
0.0424128
0.010599
0.0156956
0.0137295
0.0137145
0.00716925
0.144756
0.0322278
0.0377101
0.0481858
0.0457804
0.0602321
0.0615054
0.0526086
0.0508014
0.0479281
0.0490663
0.0210355
0.0150095
0.0425948
0.0130013
0.0326181
0.136652
0.0128639
0.0136762
0.165542
0.168143
0.039296
0.0354046
0.0319878
0.00946793
0.0377727
0.0389641
0.0642037
0.0445379
0.043494
0.0580822
0.0240082
0.000497226
0.0466263
0.0477326
0.016491
0.012925
0.0154152
0.0822582
0.0830306
0.0821199
0.0479405
0.08953
0.0892753
0.069996
0.0681989
0.133675
0.0974685
0.0982016
0.0458638
0.0486878
0.0484086
0.0528606
0.0752108
0.0112036
0.139918
0.139676
0.139885
0.135172
0.0663549
0.020619
0.0221891
0.0288298
0.0255835
0.0577193
0.03562
0.0381855
0.0514075
0.0557591
0.0408941
0.042836
0.0985134
0.104169
0.108635
0.0290857
0.0289031
0.042703
0.0430046
0.0387804
0.0729004
0.0731597
0.0848003
0.128281
0.037622
0.00535274
0.00601242
0.135329
0.0236804
0.0651361
0.00380299
0.0329549
0.030777
0.0333563
0.0195428
0.0258188
0.0693118
0.017594
0.0149069
0.0134817
0.0945056
0.0326044
0.000904418
0.00166789
0.064887
0.138273
0.0993858
0.0999258
0.0432722
0.11172
0.106693
0.0195025
0.0202662
0.0446751
0.042301
0.0439856
0.0766774
0.0208625
0.021886
0.140027
0.140515
0.0367333
0.0218421
0.0200041
0.0441688
0.138794
0.0917357
0.0898266
0.0491109
0.0730917
0.0336432
0.00390469
0.00232378
0.00501134
0.0451445
0.091754
0.0046413
0.183064
0.00242278
0.00450445
0.00685878
0.0043095
0.003627
0.00380451
0.00267271
0.00497367
0.129005
0.0363248
0.0378272
0.0333657
0.0509414
0.0971693
0.0937022
0.139373
0.139499
0.139296
0.0711803
0.0949996
0.09354
0.0678609
0.065811
0.0634391
0.0433218
0.0437098
0.0666064
0.0647313
0.0215946
0.0237556
0.0264606
0.145577
0.150628
0.138177
0.137979
0.0481734
0.119951
0.116156
0.0313227
0.0337016
0.137586
0.137263
0.00538457
0.0871867
0.0850618
0.139085
0.138809
0.00902123
0.133911
0.0656086
0.0722668
0.0544291
0.03742
0.0198252
0.00392432
0.0348555
0.093645
0.071526
0.0721541
0.0263943
0.0311322
0.0329492
0.00270402
0.0685511
0.0692196
0.0604642
0.124648
0.125156
0.126128
0.0383436
0.0510695
0.0548864
0.0554481
0.0538428
0.0560481
0.10563
0.107305
0.0438931
0.0477562
0.0482181
0.0468637
0.0468807
0.0484425
0.00132525
0.11263
0.113723
0.115758
0.0232564
0.0213036
0.0606668
0.0602959
0.136715
0.136679
0.0388618
0.0426845
0.126603
0.127452
0.0562048
0.0565164
0.0548863
0.231452
0.187555
0.0799105
0.0781796
0.0189104
0.0210888
0.121132
0.0604251
0.0615931
0.13141
0.130615
0.129797
0.0359782
0.039085
0.138469
0.138182
0.060057
0.058851
0.0606796
0.0471455
0.0444751
0.107968
0.107582
0.106486
0.0202088
0.0253803
0.0649344
0.0654078
0.016472
0.138072
0.138249
0.0632889
0.12684
0.122962
0.0248635
0.0622315
0.0654926
0.0376052
0.0383545
0.0364299
0.138264
0.118233
0.103024
0.109576
0.115016
0.0274852
0.0754293
0.138205
0.0196371
0.00250231
0.00527416
0.0588217
0.0588351
0.0149391
0.0702107
0.0548463
0.0507677
0.120518
0.153236
0.0449499
0.0472653
0.0315611
0.063182
0.0673372
0.0133959
0.0610776
0.0594273
0.0645742
0.00727367
0.00730003
0.121643
0.0581452
0.0580577
0.0555282
0.0351245
0.0404781
0.0364106
0.0491589
0.0503424
0.0122059
0.0512006
0.0505946
0.0627952
0.0597384
0.0593536
0.00814903
0.00719632
0.0906005
0.0896179
0.0885688
0.0539453
0.0492952
0.0526529
0.0465522
0.0483928
0.00350024
0.0330964
0.0966656
0.0966875
0.0962768
0.095905
0.0337189
0.111844
0.112976
0.114972