/*--------------------------------*- C++ -*----------------------------------*\
  =========                 |
  \\      /  F ield         | OpenFOAM: The Open Source CFD Toolbox
   \\    /   O peration     | Website:  https://openfoam.org
    \\  /    A nd           | Version:  6
     \\/     M anipulation  |
\*---------------------------------------------------------------------------*/
FoamFile
{
    version     2.0;
    format      ascii;
    class       volScalarField;
    location    "900";
    object      p;
}
// * * * * * * * * * * * * * * * * * * * * * * * * * * * * * * * * * * * * * //

dimensions      [0 2 -2 0 0 0 0];

internalField   nonuniform List<scalar> 
29884
(
2.79417
0.0872877
0.623705
-2.55873
-0.0593281
2.5662
0.110547
-4.42247
-0.843758
1.16332
2.90555
0.748836
-1.17124
-2.37892
0.0265249
-1.93949
-0.325495
-2.20602
-4.45258
-2.97151
-3.47737
0.643887
0.378844
3.48401
-1.47451
1.23743
-0.766096
-1.35693
0.423312
0.378968
3.20223
2.76778
-0.778389
5.38714
1.92821
1.79361
0.816605
3.06263
1.84476
0.981833
0.722147
-1.61737
3.1398
5.14501
-3.53772
0.476652
-2.29522
2.11783
0.698148
2.5404
3.19574
-0.207137
1.20015
-0.866585
-2.93726
4.33136
-2.71806
-1.68776
-3.73436
-0.649292
-0.315273
-0.79975
-0.212973
1.11513
2.17268
-1.8596
1.3198
1.5515
0.700541
1.52045
-0.328074
-1.06236
7.97288
0.793525
0.492306
1.48407
-2.79457
-1.33515
-2.61588
0.835003
2.13153
-3.27799
-0.373859
2.1582
-0.233053
15.3609
0.770167
-0.637329
0.14379
19.1537
0.488327
-2.36779
15.1827
20.5105
2.78799
26.0652
1.27644
1.39019
0.139614
20.4297
1.65105
1.80979
0.13838
0.527183
0.336165
-1.88747
18.4947
19.0016
3.17768
1.5551
1.23183
26.0155
-0.0856766
-0.217043
-0.207582
2.00114
2.49455
-0.0498127
3.87673
3.35108
0.916997
2.47813
2.06288
2.79842
-0.371022
3.50322
1.16096
1.44341
-0.752293
3.06867
3.29098
2.94691
-4.35184
-2.32895
-0.213208
-0.655944
2.29872
0.322288
0.310222
0.586093
0.320596
3.12323
1.96154
-1.97224
-2.13269
-1.90943
-1.57477
2.54329
2.03271
2.21881
2.74263
16.7142
18.1037
0.686977
0.589983
0.980768
0.531514
1.12456
0.812633
0.585188
0.907346
3.48124
3.66119
2.78245
25.6424
25.553
-2.51127
-0.988331
1.12481
-5.91096
-2.76395
1.29793
1.31669
-0.373446
-0.224069
2.72373
3.02443
-2.86492
2.01544
1.72292
1.84934
5.37453
5.44266
4.78151
-0.134432
-0.106049
1.31866
1.18008
1.26279
3.281
0.516455
4.32835
4.91123
-0.237042
-0.322021
2.64842
2.70093
0.779637
0.00771891
0.194285
0.354388
2.61952
2.54195
1.73719
2.60243
3.94071
0.109848
-0.292947
-0.40251
-0.782714
0.564143
-0.605219
-1.80892
-3.60255
-1.64649
19.7257
3.05563
21.5651
0.368867
21.795
22.0822
-11.3402
2.42429
0.558756
16.8013
22.1802
21.1263
21.6551
14.401
-6.12447
4.91858
21.512
19.9175
-6.75385
-7.27409
20.1805
20.3044
2.84864
-4.16842
-2.82063
-3.65213
26.0023
20.2184
-5.83281
-4.31243
3.27353
20.2892
21.7114
-9.60023
-10.7365
-5.64362
1.07349
3.04956
2.9339
22.6606
22.3516
21.3212
21.6984
-11.6979
-10.5708
-0.261648
3.43464
-5.91576
24.3416
2.66828
21.9577
-9.99832
2.6048
2.21124
22.0818
1.70635
1.84249
21.1521
21.55
21.7195
17.785
18.5178
21.3705
21.0877
-4.41908
-0.953351
20.1071
1.55154
2.00176
3.86579
3.26619
2.93471
-8.58976
25.7608
1.93425
22.2932
20.0836
20.0908
-5.17813
-8.85823
-9.061
3.53986
20.0485
20.1541
-5.47712
-4.93991
20.8459
20.6282
20.888
21.3552
17.6201
16.6056
6.66423
3.09215
3.30847
3.30299
3.58771
20.9277
-4.73382
-5.13961
-8.96253
-6.19528
20.6783
-11.3899
-10.4113
-11.2726
20.3786
20.9339
21.1464
-9.75828
1.91139
20.1903
20.7585
20.8198
21.186
2.65276
2.23873
2.2197
2.30041
20.2741
20.2399
2.31337
-4.6178
22.1967
22.1353
-8.05315
-3.33551
21.9978
8.16342
0.316802
22.4033
21.9842
22.147
22.1769
19.7129
19.3965
20.3204
1.75717
1.8597
1.44278
20.7784
21.35
21.4812
21.4732
21.3973
20.2207
19.255
6.26596
0.813871
2.86612
2.73183
2.66104
2.58666
25.0741
22.9761
-7.08864
-5.86417
0.475605
0.60818
0.423415
3.42458
2.81745
-7.82197
-9.06074
-9.58743
-9.5823
11.8889
4.04519
3.99598
3.56586
-5.37679
-6.04901
-5.90526
-5.27609
16.5855
17.7434
18.7731
17.2528
-6.51661
-7.08362
-6.66359
20.2665
20.6076
-4.094
-3.7289
17.9184
19.0617
16.439
17.7393
16.8578
16.5601
21.6933
3.10548
3.31916
2.09545
2.37567
20.1054
19.809
22.2465
22.4201
22.6219
19.7935
0.302938
19.9543
19.4763
20.4058
-2.92339
20.8285
20.6811
21.5516
19.8427
19.2894
19.0359
18.5961
20.8684
20.4691
20.6103
20.0524
-4.1068
18.4337
19.3746
19.3395
19.6215
-5.27247
-5.81654
21.5979
21.1603
20.4593
20.6938
3.92313
3.53528
4.15071
-7.06655
-5.94744
-7.70364
-6.8867
0.0281714
-1.44686
14.5969
14.4144
1.05484
1.1297
1.09784
1.20902
-1.33369
25.2615
6.72796
5.98828
0.808375
-6.43403
-6.10741
-6.44425
-5.77057
16.4806
15.5493
15.8698
14.7622
1.64009
1.50494
1.64772
0.99578
1.03954
1.09118
0.658186
0.878701
0.807827
3.71248
3.49177
3.57714
3.97908
-5.33059
-4.77527
-5.45378
-5.78414
3.40062
3.09945
3.26823
22.1898
22.3978
22.2388
21.7012
4.26101
5.04909
4.48802
25.8828
25.3005
1.45209
24.949
10.9936
0.911017
0.884081
26.1275
26.0186
0.925576
0.951817
0.956892
1.41581
-9.26077
0.988201
-0.510863
26.1103
26.1062
2.42362
21.7286
0.0164722
1.06483
-4.21123
-6.02344
-1.75683
-1.96589
24.8733
-3.68041
-4.1801
-0.204412
2.06901
-6.29402
-0.00410027
0.123099
0.119703
0.260813
-1.86849
3.08095
3.11707
-2.80657
-2.69267
-2.86815
-0.140472
-0.440981
1.29209
1.33451
1.14069
1.0868
4.68689
24.6625
2.18718
2.13495
-0.0201909
1.21579
-0.438788
1.01717
1.09397
1.12758
25.2195
1.48405
1.42334
-9.07334
-10.2989
-9.04401
-2.44117
-6.48516
-4.95771
-0.422949
-0.361975
-0.395307
14.8073
13.9945
-3.11202
-2.72631
-2.30577
-1.74296
7.37274
-4.71127
-0.927848
-0.761684
-2.44371
-2.75184
25.1007
0.197312
-1.18288
14.6396
-0.0957511
0.227666
25.7239
18.8997
19.5292
2.26641
1.16443
1.2351
-8.24309
2.71961
6.45699
7.23073
22.4204
22.2378
4.03696
4.54456
4.34973
1.09753
1.04522
24.8975
1.35325
3.61809
3.84577
1.95353
1.75915
1.61432
2.46901
5.75425
5.12902
6.30546
5.65358
2.87936
0.5346
1.69643
-0.736428
1.91133
0.338077
0.711736
0.851685
-6.31953
-7.32691
-1.46517
-0.0773267
-0.453226
-0.952238
9.47985
10.7333
19.6281
20.035
20.4264
21.6029
0.895857
3.12028
2.91102
0.677216
1.31946
17.5796
16.8901
-3.68049
-3.94911
-3.2033
2.0877
0.990945
3.20778
3.5573
6.95389
3.78136
4.43146
-10.1834
-11.0938
1.18976
1.35908
1.16495
1.3938
-2.65137
12.9582
12.2123
11.3896
1.69101
1.79132
1.90683
1.86973
2.01277
1.04271
2.9063
3.07224
-3.53337
-3.36777
-2.98065
-2.1096
-2.36088
-2.65471
-1.36106
0.551184
-1.97209
13.1323
12.2033
11.0467
24.8634
24.7594
5.03363
5.50277
19.9541
20.1906
-0.578514
-1.07221
-0.31355
21.433
21.7235
8.42038
7.74881
22.945
18.6309
-7.47691
8.00058
3.95349
6.02308
23.3716
4.47293
-23.5888
-7.87995
-17.7001
-1.34173
22.8927
-5.30679
-11.8468
22.2217
-22.1502
-4.76458
-4.96998
5.21739
5.34969
4.22185
-0.35968
-0.886703
7.78482
-3.65712
-4.00855
-8.13088
5.89463
5.28178
-4.38101
-3.57284
-3.24489
-0.868051
0.45475
0.174403
21.2838
4.31099
4.9562
-2.46897
24.4378
19.3593
19.0391
23.533
-17.5553
4.48199
-14.5334
-10.6395
23.8064
1.06895
-0.2181
3.03499
22.9827
-11.5421
-11.3475
4.77069
-2.65887
-1.83596
-3.14329
-1.59461
-3.47024
3.46852
15.1949
-11.5313
3.95494
21.1897
21.2705
1.65002
1.52322
-9.42086
-1.90216
22.7064
-7.12152
-8.38403
-1.00861
0.0446002
4.02501
-31.5464
-3.11168
-0.758755
3.05889
19.4311
19.49
6.62727
-5.93768
-6.15614
-6.90109
-31.5417
0.716264
-9.70549
-9.4738
22.6433
1.43507
0.994026
22.9543
22.7784
-11.9383
-12.0288
0.741139
-11.8108
21.4097
-0.140233
-0.753885
2.71886
-6.48448
14.8548
0.157709
-0.0831927
-9.55448
-3.23162
-2.09731
-7.48948
25.3141
18.0689
-10.6323
6.01172
5.61462
18.8083
19.0265
-3.65085
-3.36737
-12.4103
-22.9057
-5.19287
-9.2523
-9.69511
21.6812
-2.9418
-11.4508
25.4864
-16.3873
2.43719
-4.93518
-5.0783
3.78953
3.70429
0.239643
17.9412
4.58278
-23.0075
-13.7397
-13.9766
3.26901
-10.4204
-2.73158
-0.224722
-14.3264
-14.6834
7.11937
17.2134
23.8088
-3.08272
2.29205
2.428
18.4642
18.4062
-1.55247
8.44142
-1.04225
-0.850283
-5.8226
3.96046
1.07601
0.617448
8.33098
9.74825
21.1757
22.6584
22.8721
22.8446
-2.72233
-1.63745
-9.72995
19.8547
20.1042
14.9879
1.30392
17.6383
23.1927
16.6307
15.9803
-6.977
2.27152
-0.601537
17.9122
17.8083
-4.30188
1.57365
-10.8744
4.78022
-11.5498
5.60058
5.51076
22.1557
1.62695
-15.1579
1.29968
-10.7133
-0.379495
0.461401
18.1977
17.6923
17.5588
4.99024
4.37806
2.64319
-8.44075
-8.52907
18.7446
2.34688
1.96704
1.86236
0.409735
0.0238866
3.48422
-8.72927
-9.57152
-22.3964
-2.94074
-2.31473
-2.2185
8.621
8.40703
6.20523
6.50206
-3.14417
-3.59323
-13.366
3.96159
-2.02029
-2.31414
-12.2131
7.32587
-20.3014
17.7625
-10.8035
-10.4981
-18.2573
4.28913
-12.5756
2.07156
2.42391
-10.9482
-9.52839
0.720341
18.3725
-15.4983
4.80712
5.19395
-11.0718
16.7408
-10.2106
24.6523
2.99353
3.46873
4.21083
2.72694
3.32562
0.840565
1.04732
2.09277
3.76097
-16.7059
-15.5348
6.69891
2.66981
1.88274
0.305402
-1.21097
-1.55748
2.11818
-7.31802
-8.40423
5.68751
5.32151
-3.97623
-12.4086
-12.6967
2.94982
3.16696
24.4104
-6.20839
-5.77591
-1.48162
22.091
-1.98121
-1.67264
-5.12126
-4.7821
1.64746
1.97658
2.82333
19.6507
20.2526
-10.7019
-4.52296
2.18185
-10.4767
-10.2704
-10.689
21.4303
21.1802
-12.8237
2.66246
-17.8313
-18.1736
6.37173
5.93472
-11.9708
-11.6894
-11.9499
18.0632
18.3566
-4.71278
-11.3474
-3.03369
5.23547
-7.23693
-7.40718
18.8132
-10.7342
-7.44234
-9.09514
5.36607
23.3668
0.998981
0.361928
2.7875
2.16884
-16.7541
-11.0376
-10.5104
-8.82624
-8.04601
2.84856
2.81633
2.74005
-13.3854
-12.4871
20.4992
-3.84529
-3.67089
2.13195
-7.66683
-7.41369
-3.41055
-2.92858
2.61973
18.1913
18.0837
-13.8285
-12.7011
4.16875
4.4888
4.18927
5.03737
5.66405
18.2181
6.91699
25.2308
-8.25383
-8.5684
-8.1571
-8.07627
-6.8422
-8.75336
-11.1067
-11.2587
-0.587941
-0.62492
-0.769735
-0.0912373
-1.46582
-5.44783
-5.83017
23.029
20.9261
-11.3173
0.949319
0.902941
0.501856
15.2247
0.212617
2.60813
2.94056
1.08962
1.18751
1.45993
2.45224
3.11933
19.0275
18.6321
18.7092
19.0179
-2.34928
-2.92411
20.5667
3.64505
3.60075
3.86638
0.223777
2.86376
18.1667
-4.31855
-3.73603
19.78
20.2432
19.4289
1.32002
-1.93112
-1.69949
-0.0652571
2.16553
2.60911
-1.12285
3.85252
18.6443
18.6793
18.3688
-7.03897
-7.59648
-6.82036
1.27284
18.584
4.92819
4.3322
-0.0193651
22.5586
8.26684
8.09809
8.31241
-9.35205
19.1784
-12.3423
19.2078
19.4042
24.1804
25.6588
3.03651
-4.00652
3.01145
-4.26478
-3.94169
0.323847
17.3809
0.707525
4.79295
-18.9439
0.264937
0.605052
0.828373
19.7199
2.92255
2.92608
3.0033
4.11386
4.86255
23.8279
19.2216
19.4673
-0.00155051
0.217898
0.64476
23.9104
22.458
3.7217
20.2333
20.5599
20.2821
19.6064
19.1468
19.3789
2.44367
20.4882
20.7649
-11.6876
24.1679
4.14408
4.43784
0.407342
0.435774
5.0143
0.720564
0.291271
-0.21499
2.78302
2.65915
-8.9145
1.67226
1.96073
2.02006
0.409618
0.84557
8.77774
2.63507
6.56968
-2.24326
21.1979
22.7798
-0.83876
24.3868
-10.2823
4.65633
18.1583
-4.70243
19.4773
19.8104
16.2568
16.129
1.88117
1.16576
-1.80303
-1.66768
-1.87615
-0.122972
0.275803
0.0145472
7.32076
7.07055
21.31
21.8969
24.6302
-0.874913
-5.91015
2.96025
3.16479
3.12656
3.57166
3.79447
18.1085
17.9518
1.53126
1.47995
-0.568356
0.371433
0.176102
-0.243174
19.7881
0.283362
1.86665
2.22073
2.67225
2.13966
-14.0577
-14.5316
-14.0004
24.6759
19.3686
18.5911
19.8177
20.4446
6.56458
6.87308
20.9462
2.35632
2.58932
6.59326
-9.97052
-9.89489
-8.83678
18.7369
18.7157
18.5653
-9.08811
-9.29415
0.620756
-12.383
21.5922
21.4974
14.8642
14.6877
2.97285
3.17637
2.79931
2.631
5.28964
5.06605
16.0273
-10.4894
-10.9718
-11.7183
3.49602
3.13249
25.6755
20.5214
20.4803
-3.93139
-4.18927
25.0024
24.4014
24.7969
22.9461
22.9801
-2.92526
-3.30934
-15.7796
-14.0538
-17.6811
-11.4655
22.6724
-7.4439
-7.71574
-7.81303
-10.4396
-10.1141
-9.96775
-9.06714
25.1278
25.2418
24.9752
24.8785
24.8531
24.4476
20.3319
19.8729
22.7773
-6.57007
23.7749
2.31214
2.12344
2.31188
3.54837
3.55068
3.06832
1.74075
1.904
2.27164
2.7865
5.87417
-9.64259
-9.67993
-9.02708
18.3678
17.9289
18.3421
1.48662
1.07531
0.72881
2.53204
2.69051
2.95924
8.6525
3.62915
3.87517
3.66199
-0.84236
-0.482268
-12.4001
3.37725
2.86108
2.98484
25.1827
24.9892
2.91634
2.93827
3.21075
3.53961
-10.0278
1.92264
1.82752
1.21322
2.02959
2.43556
2.51736
2.32408
-2.13044
-1.97363
-2.30685
-2.7473
-8.81428
-11.4785
-11.4553
-11.2953
-11.3479
18.4611
17.6925
0.8197
1.58757
4.40015
3.54143
-15.4343
8.11585
-10.7336
-11.5939
-6.15939
25.4528
-10.845
-11.8157
4.34092
5.00594
3.53894
1.11467
1.29098
25.0978
-6.93045
-6.97909
-6.12338
-8.18788
-8.45754
-8.16065
-10.0261
-10.1286
-10.0709
-4.48917
-4.86807
19.6804
19.1991
0.449942
0.292177
0.976041
25.3934
20.5591
25.6843
15.0229
-11.9671
-12.222
-10.9227
-11.8219
-13.3466
19.4921
19.1067
18.9225
-8.44723
-7.53012
-8.19842
-7.56542
-11.0166
-10.7787
-10.9422
-11.035
22.6129
22.9451
22.5211
22.501
-8.75696
-7.85111
-8.49676
-8.13411
16.077
-5.3499
2.87746
2.74125
2.479
2.8478
-1.65681
-1.29886
-1.56926
-10.84
-10.4386
-9.8875
-10.565
0.77122
1.09517
1.48056
2.59204
2.69114
2.45477
2.63699
2.2961
19.3438
19.7989
19.1702
18.7643
2.89089
2.73781
2.71779
2.7998
-9.04037
-9.29918
-9.51418
-4.132
-4.86876
3.49101
3.91369
3.32707
-13.3313
-13.9629
-1.07097
-0.915816
1.59037
2.09094
1.09401
1.64373
0.897921
0.307821
0.845965
-6.55909
-7.01161
-6.63653
-6.97656
-6.37251
-6.31464
17.2609
17.6144
-0.785378
19.3396
19.4222
21.5848
1.17128
1.49749
1.86094
1.56654
20.1448
-2.9232
-2.10478
-1.81514
-1.21765
2.74864
2.40447
18.212
18.4886
17.8451
18.0913
-3.31284
-2.96277
-3.73061
-6.58395
-7.1467
-7.17114
19.3923
19.166
20.1691
19.9807
-8.46912
5.23435
17.1875
-7.0338
-7.33
-6.15362
-7.10174
-21.4739
6.07965
-21.124
-20.7943
4.35027
4.64577
3.90292
4.12832
-2.06014
19.3096
19.6318
3.58173
3.50434
3.89435
-0.070274
-0.380222
-11.6081
-11.6915
-11.5265
-8.72811
-8.38729
-8.67455
-8.33418
21.1525
6.3212
6.14176
-5.03074
-5.31328
18.6616
18.7723
18.5137
21.9016
-4.73031
4.78343
-0.430638
-0.702762
-0.510805
1.20511
-8.94831
-9.41438
-8.50689
1.95964
2.1309
1.75443
20.0045
20.153
2.96649
2.57918
-7.61739
-7.35806
-8.17026
5.2874
4.99787
5.91711
-6.40533
-6.61363
-6.30241
-6.75255
-6.97993
18.0472
17.538
17.8312
-3.57823
17.1462
16.7739
-1.59291
-1.73966
-0.596396
2.23276
1.60276
-12.4275
-12.3275
4.56411
4.25276
20.8969
20.3772
4.32626
4.0842
3.57438
3.12026
1.87615
1.90712
1.32459
1.42905
1.90077
1.88956
17.9614
17.7526
0.561367
0.127105
-0.0636529
0.280848
-0.703982
20.0376
19.7937
19.5892
22.6805
22.7925
22.4331
22.7966
19.475
19.6343
19.6298
19.4335
0.250928
-0.242599
20.6351
20.795
3.29246
3.4023
3.79132
3.90747
3.76912
-12.1694
-11.9999
-12.0555
-11.9006
22.2259
3.21087
3.01768
21.3492
21.2023
20.8815
21.3497
-0.155279
-0.158094
-0.590767
-5.40245
-5.61635
-5.24449
1.97225
2.45175
1.46966
19.6834
19.7861
19.728
19.8042
-3.72669
-3.37264
-3.02547
15.8456
-13.5888
-13.2154
-12.7321
0.587567
-7.21623
-8.10218
-7.56603
-7.69131
-0.0575803
-0.291168
0.549513
0.0843106
3.15646
-10.446
-10.461
-9.75397
-10.2581
2.72894
2.89181
2.62535
2.4677
2.26047
2.2337
2.55419
2.25902
1.92663
23.3029
19.469
19.6122
-12.42
-12.4543
26.0517
-5.7216
0.699919
0.214216
-0.514155
-0.207146
-1.28871
-1.81729
-1.15882
-11.6767
-11.0891
-24.7337
-23.9226
17.4645
17.8336
17.9764
18.1053
5.04202
3.27129
2.98089
3.35058
-23.4321
18.2012
18.3177
17.6685
17.7904
-8.25737
-7.9628
-7.65284
-6.95357
1.33343
1.38544
1.27457
5.08495
-8.63823
-8.37548
-8.77261
-8.83484
-13.5051
-12.9456
-12.7114
4.36787
4.31996
5.38658
20.1863
19.8004
19.6286
19.5933
9.92877
9.81174
-2.54846
-1.62535
-1.11087
-1.00519
20.6857
20.4281
20.1796
-7.72127
-14.8935
-16.2818
21.0272
20.85
5.20048
5.1321
5.33918
2.87539
2.84345
3.05999
-11.4704
-11.6531
-11.4207
17.5388
17.1414
17.5398
18.1173
22.6493
19.4905
19.8816
19.4024
19.5454
-4.85461
-10.1222
-5.11471
-5.50253
-1.09479
-1.01418
-0.0207045
-0.171143
3.31696
2.89615
2.77618
2.72316
3.22967
-0.597605
0.501548
-0.252451
21.6831
3.94107
3.804
3.90104
-1.20336
-0.510028
-8.80338
-8.90002
-8.84972
-10.8595
-10.1837
-10.8026
6.03458
23.2082
4.83728
21.8901
21.9739
2.59898
2.0993
2.69272
-5.19165
-5.16779
-5.44345
0.870263
-11.0841
-11.4201
-11.1561
20.6764
21.0316
1.92907
1.58153
1.37616
1.67027
4.91311
4.95687
21.8973
21.9519
1.92414
1.60435
2.20617
2.0224
2.58086
2.87484
20.4403
4.99199
5.17789
4.93145
-0.931386
-0.459041
-0.896213
-19.1198
-7.45184
-8.09194
-8.23284
-7.66701
20.4987
19.9197
19.5478
19.9666
-5.04196
-5.96529
-5.3723
-12.5966
-13.6988
-17.2329
-14.1153
-16.6531
0.524107
0.356506
-0.796195
-0.553742
-5.961
-6.51837
-6.02355
-5.27316
4.3118
4.0881
3.11171
3.46269
21.7306
16.8222
16.4986
16.9109
-6.19694
-5.80543
-6.21255
-6.40768
-13.3226
-11.9186
-10.3941
-10.2269
-9.54849
-5.09308
-4.66966
-4.86457
-3.86647
17.1499
17.446
0.367105
0.305961
-9.10653
-9.58059
-9.72489
-9.71115
1.27605
-5.77108
-5.42014
-5.58718
-5.45345
2.52678
2.73402
2.65017
22.9285
17.9608
-10.6083
-10.0974
-10.2158
-9.59135
1.74216
1.98734
-10.1403
-9.98617
3.88687
19.2191
2.42524
2.13675
1.00655
-4.87708
5.57182
5.35717
5.39678
-6.04885
-5.83928
20.9047
-11.1633
-12.3924
-11.8132
-14.7677
0.367831
0.764493
0.457367
21.6849
21.6377
25.7645
-4.40133
20.7896
2.72338
2.8359
2.33832
2.62719
-0.165544
0.247933
1.1986
0.862098
2.79311
2.78727
2.86754
2.85978
-9.59298
-8.99585
-8.54183
-9.35127
2.30136
2.2598
3.44877
2.46954
-6.56923
-6.06579
-7.10098
-12.4755
23.3693
-7.24124
-11.3235
-10.8165
0.935769
0.895996
20.6098
-14.4308
2.89403
3.35371
3.0411
21.5475
0.131615
-0.250829
0.263703
0.908343
3.67832
1.18978
0.795148
1.92748
2.13442
21.8389
21.9709
21.282
21.5739
2.40936
2.51863
2.6835
2.13775
-0.0487971
-0.390064
-0.707173
-0.284897
4.14795
4.46947
4.62096
4.23897
20.7962
20.6715
19.7243
20.048
19.9882
20.0798
-8.75057
-7.84809
-8.93173
-9.4079
0.455808
0.282487
-0.00775143
6.79124
-11.6232
-11.5786
-11.4501
-12.2083
-11.9085
-10.7913
-12.4986
-12.9627
-13.5835
-13.9079
-14.7919
2.31609
1.82543
25.7771
20.1447
19.8031
19.4779
19.2139
-15.2256
-14.2502
-14.0243
0.358271
-4.66563
-5.03969
-4.56718
-11.0591
-11.1263
2.26812
-10.4792
-10.611
-2.92925
-3.47447
-3.76214
-9.86174
-8.73244
-8.68336
-9.549
-11.8982
-12.0831
-11.8731
8.00219
6.97519
-8.22748
-7.39182
-7.86433
25.79
-8.9896
-8.48439
1.5307
1.66621
0.394388
1.49068
1.32802
1.5709
-12.6734
-11.4601
21.1844
21.3901
0.931461
1.43902
19.5948
19.7807
19.9312
20.2215
-5.85626
-10.4889
-10.5015
5.11637
5.24593
4.58815
5.14059
1.05227
1.0441
1.45918
1.17182
0.825457
0.912304
1.35552
1.11849
-0.297919
-0.208587
-0.360799
-11.5659
-11.3238
-10.5857
-11.161
-9.78989
-10.0315
12.9592
-7.72893
-7.67597
-7.68715
7.00881
20.7049
20.8772
20.8153
-0.683819
-0.818911
0.465208
0.62454
0.590926
1.04811
-9.54339
-9.02069
2.09087
2.30814
1.75353
2.10269
1.795
2.20541
2.26276
2.55416
19.9042
19.7912
20.4647
20.4538
-12.2496
-12.3307
-12.1648
21.1699
20.8795
20.4377
20.7736
5.22332
5.33191
4.97204
18.8234
2.49319
2.02688
2.0626
1.99792
-15.973
-14.5819
-18.149
24.815
-3.65054
25.0186
25.2037
25.2665
23.2378
-13.2489
24.8862
25.1305
25.1881
24.7173
25.8213
23.0386
25.5919
25.6212
24.8171
24.8569
-11.0366
23.7847
23.7259
0.53594
24.1439
-6.38368
23.4552
23.4163
23.4245
-6.40884
25.339
1.21836
24.6249
25.1818
25.1215
21.5805
-1.38744
0.0192713
22.9753
22.8619
-14.4833
25.0018
0.936755
2.1381
-1.48664
5.82331
6.8042
-6.57539
25.4886
24.5449
25.7368
25.6826
25.6353
-14.5452
-15.0592
25.2562
-14.8373
25.4896
25.3869
22.8078
25.677
-4.07235
-14.6736
0.494989
0.617298
25.838
-17.1208
-17.5771
23.5214
-24.0487
23.0709
23.176
23.1366
2.44034
2.2587
25.2451
-1.21102
1.40064
1.6106
-17.2997
24.4309
24.4847
25.4295
4.33862
24.04
24.2305
25.502
23.8807
23.0139
2.7896
25.3444
19.347
19.3826
0.651045
6.71201
24.2042
17.7303
23.1661
25.0534
2.27846
22.4865
25.2516
23.2436
23.2915
25.1214
24.3751
24.3143
23.6927
24.0719
24.005
23.3672
23.2477
23.2759
20.3882
23.9133
21.9367
0.877495
24.3432
11.38
23.1509
-1.35268
25.87
23.5724
23.7283
23.7888
6.06253
23.191
23.0509
-24.7198
25.6091
25.6247
25.3861
-0.667756
-0.706533
-19.3785
23.8433
-25.6452
-24.7537
25.8179
19.7027
19.8969
-1.45895
21.0869
0.215477
0.153048
18.3118
24.3783
23.2572
-0.936558
-1.56162
23.3556
22.3691
4.0278
23.004
24.9172
24.5231
21.4998
24.4312
23.1651
-9.70229
-9.83938
-9.46714
25.3116
24.9465
-11.9006
-11.8769
4.41846
4.31356
-13.6379
-11.0403
-10.5828
0.306582
24.7274
24.3901
-5.82354
1.40737
25.1377
25.0372
25.263
25.0867
25.0113
24.9801
24.8423
24.0055
25.1166
24.821
24.6824
24.4036
24.3286
23.7057
23.6973
5.18552
24.5587
24.3382
23.4039
26.2837
25.9635
21.8531
25.5054
21.7145
21.9609
23.3732
23.2998
25.0638
24.4485
23.846
23.7243
1.90242
24.2805
0.277402
0.13721
0.14434
-11.9594
-2.15994
24.1282
-16.7788
25.419
2.34623
21.8949
25.3875
22.7761
22.62
22.6875
24.746
23.8788
1.05696
12.0889
11.0195
24.3637
24.5213
-0.720184
1.34206
-3.99285
-3.70499
23.5974
24.2589
0.351684
21.4347
21.9464
26.0934
23.261
-20.2692
7.93572
7.2874
24.8573
-4.03357
22.673
22.4532
22.491
25.4183
-7.3162
-8.56583
-8.41482
17.1811
23.3691
-0.750394
-1.07792
3.68736
-0.0708192
-18.6255
21.601
22.2115
1.27935
0.775188
0.613185
22.8346
1.80505
25.5946
25.54
24.88
22.9885
-21.4157
22.8763
22.9087
22.9747
23.0483
24.0711
25.8276
25.8907
-2.44868
-5.86424
21.6976
8.72132
3.39584
3.40702
21.7387
-0.246871
-0.400432
-3.33879
-3.78166
25.2799
-23.7583
-0.648699
-1.04654
24.6497
24.7723
22.8473
22.6531
0.640691
0.409643
-0.771727
-1.09258
22.7419
-7.59279
-7.31575
0.8688
23.1487
23.102
8.55414
23.731
23.3055
24.3972
24.4151
22.5726
24.87
-2.35199
22.1653
21.954
-16.2888
4.83532
22.551
-16.4173
7.8688
8.54939
7.75197
-16.2547
1.51259
5.79047
-4.83373
22.2306
25.2254
23.1967
24.8341
24.7153
-2.07277
23.1777
23.2101
22.86
-5.08733
-8.27186
-6.80445
22.9348
21.6004
21.4433
0.0450118
0.322561
-12.3565
21.7
21.6293
22.0014
21.4333
-1.05973
-1.68526
3.51915
3.19829
-1.60047
-1.55499
1.15354
25.0665
25.1252
2.46345
24.3137
-6.66971
-1.09968
-0.953592
-0.667126
-10.7425
-10.2076
-10.4059
0.132377
-4.24437
-4.83967
2.19372
1.38049
1.50791
0.539676
3.7489
-3.61757
-3.4192
24.3476
24.3179
1.09637
23.4646
-9.9087
-10.2161
-8.91407
-2.34699
24.6022
18.7609
24.4377
11.1924
24.8721
22.9448
22.8218
1.2039
1.1734
1.35934
23.1722
23.1801
24.7389
0.772236
24.2201
11.4725
20.6497
20.6221
20.1474
0.393799
-1.11496
-8.41178
-8.65916
-4.70809
-5.26831
25.5628
25.5065
1.46122
23.9486
25.0473
24.6255
-0.0359435
-0.449167
0.799218
-5.50914
0.706086
1.76093
1.63444
24.3962
22.9077
2.76054
2.65465
2.12253
2.50417
-5.02042
-3.76243
3.56527
3.59177
8.10147
8.90038
25.487
1.0308
0.704355
-2.12651
0.269742
0.330649
0.335032
-0.884177
-0.497173
0.738702
0.651752
0.419676
-1.07145
22.6898
22.5736
21.6675
-7.53033
-7.07777
-7.78134
-1.14703
-1.27587
-6.51817
-9.04717
-9.30602
-2.21885
-1.75234
-3.72418
-3.88384
21.668
19.7388
26.2754
25.7228
3.91114
-5.73067
-5.92078
-5.87164
-0.191341
25.8915
25.8146
-2.35759
-1.88602
24.2205
24.3221
24.8638
24.7851
25.0253
20.9555
21.1746
21.0182
1.34836
1.21266
24.0591
24.7212
24.6785
24.9329
24.906
7.52785
8.79944
-8.99697
-8.05102
-11.6982
1.55817
-8.51654
-7.99846
-4.31634
-4.89264
-5.16084
-6.65085
-6.54686
-6.71735
-7.13236
23.9307
23.8465
0.630273
0.716018
-0.817602
-6.141
22.4961
24.6374
22.4513
24.6413
24.6538
24.7828
24.7265
25.1009
-6.98795
-2.39478
-2.83232
-3.35552
-3.19016
-2.62074
-2.46428
-11.5479
-11.935
22.0549
7.65842
24.3845
24.2364
8.28673
23.4222
-11.0252
0.0513564
24.0051
23.8084
-0.709135
-0.713792
22.4033
-6.39471
-6.31447
25.0649
-9.66959
-8.99193
-4.28421
20.4374
20.4289
-1.89937
22.6567
26.205
20.5404
20.5737
20.1238
20.0313
19.7949
1.01956
1.12331
0.988009
-6.24432
-1.27936
-1.06212
1.85383
1.42572
2.76394
2.64723
2.75927
21.6956
21.4073
21.5135
-3.61382
-0.529567
24.3883
0.970223
0.976055
1.01303
1.81995
-10.2372
18.683
19.3068
18.973
19.6271
-3.62776
19.9309
19.8325
21.4297
21.0433
20.4775
5.51795
15.6784
15.178
14.6975
23.4722
23.3658
-3.24441
-3.51067
-1.40831
-0.95946
3.09952
-5.47367
2.34682
23.2427
25.2761
25.2195
2.00201
22.6369
0.0465429
-15.5514
21.212
21.0503
20.9889
20.0504
20.2033
5.14185
-5.56572
-5.39136
-5.45408
-0.451751
23.249
26.1293
25.8524
0.207393
0.790132
3.19423
3.49007
20.0059
-0.282354
-0.78693
24.0956
24.0972
22.493
22.5868
22.3613
-0.786937
23.9644
23.9493
0.960299
0.21259
19.7062
22.3909
22.3406
22.2576
1.03747
2.69503
2.32961
21.8246
3.1404
20.2805
25.2257
21.2942
21.3492
22.4017
-0.735252
25.0774
-3.58251
25.1468
22.0738
22.0947
25.394
25.4299
25.441
25.0851
24.9978
1.94161
22.9236
23.0578
-9.29467
21.4923
1.77727
1.06927
1.20483
1.10867
1.25264
-1.21341
2.45342
2.36259
-0.270138
-0.665621
-0.922886
22.3032
22.2613
-1.86551
-2.11171
-5.89564
-6.14618
-6.20169
-1.94736
-1.82625
1.62328
1.68218
-4.16044
9.65736
10.6086
19.5583
19.4313
2.01978
2.22897
-5.29504
1.03956
0.508008
0.875367
0.85123
22.1118
5.40728
17.9111
17.4526
-3.4213
22.1714
-16.5789
25.0236
0.4584
0.200336
2.51551
2.7164
-4.59812
-4.63325
-4.39693
25.8589
15.3281
16.0529
16.6344
1.91255
1.68477
1.51517
23.1185
20.9046
20.4652
20.3427
20.319
3.10076
2.81818
2.7931
-7.29417
21.3055
21.3014
21.3737
20.0223
19.9524
25.4056
1.71117
1.96968
1.68747
-7.78822
-7.68554
-9.54186
-8.7978
2.86743
3.02931
20.6339
20.1984
3.21235
3.27999
21.1668
20.8283
20.8403
-3.51966
-3.15956
1.05364
0.944749
21.6438
21.7548
0.259757
-9.26079
-9.72057
2.02136
1.82106
2.19398
-7.99383
-8.41099
0.824046
0.775358
20.5453
20.9056
20.4819
-7.55041
-7.61133
0.710279
0.957901
0.637722
-3.50983
-3.20191
-11.0746
-11.3452
24.4679
1.74905
1.61442
-12.1184
4.73635
5.07606
23.161
20.9843
20.5312
20.9046
21.0396
23.1442
1.59408
0.33518
0.0158673
0.64926
0.837096
23.8575
3.7895
-0.0811139
-16.9125
14.0694
14.4525
-7.71929
-7.43354
24.7055
-1.4591
6.00638
6.02468
4.17996
-11.3588
19.1861
18.6631
-9.21673
20.3763
20.0314
22.0115
20.3401
20.6202
-1.65006
-5.34324
-5.4497
3.52441
19.6752
19.8714
19.8378
19.5597
20.0594
20.2103
21.7304
21.8297
-3.33961
22.0917
21.9849
19.4781
20.3131
20.2327
24.8724
24.9277
2.21577
2.15875
2.05387
0.836833
0.218218
21.2343
21.6999
21.3913
25.3879
-11.1398
2.60519
2.63041
3.16986
3.29675
23.2559
4.15744
3.58019
3.70651
-5.23439
-3.39865
-2.26783
-5.53196
-5.68663
-0.0592265
0.0312147
-4.7969
-4.18863
-10.4026
-9.951
-10.2255
0.89894
18.9331
19.3968
-0.441473
-0.564116
-0.0747517
20.9143
20.7006
20.5798
-1.21812
-1.12285
-1.36595
-10.0202
-21.6131
4.89146
5.04087
-10.6728
-10.358
1.44079
1.7989
20.5859
-9.58237
-9.60269
3.06961
2.97516
0.397009
0.443339
6.21755
6.80752
7.80729
21.8141
21.8027
-13.3746
20.6139
20.6554
1.72646
0.950782
1.3769
1.51114
0.936261
-5.19454
-3.14434
-4.16214
7.45875
8.25247
9.65298
9.1347
21.9702
22.2813
-1.39212
-1.50113
1.59068
1.80286
23.1131
25.3429
20.4348
20.3422
23.0522
-5.71939
-5.11629
-5.23484
-0.341952
24.5995
17.0867
17.2155
3.23069
3.08457
21.1249
21.1309
-9.68542
-9.77689
1.8638
1.2364
0.972533
22.1513
22.2511
4.20546
4.61789
21.3959
21.457
22.7493
22.5949
-19.8226
0.0572655
2.88872
2.77897
-3.09378
-5.15434
25.4855
-15.0173
-3.36606
-9.21892
-9.52553
-3.10403
-2.38893
-4.82468
-4.73449
-0.515223
-0.438854
-0.887572
2.71189
2.94307
0.472088
0.968339
0.779635
25.849
25.2744
25.4526
22.1673
22.2549
21.7363
22.1926
1.23046
1.72156
1.26106
-4.51621
-4.49525
2.85481
1.07352
0.935207
1.02831
-3.70525
-3.63218
14.2279
21.8755
9.33026
20.2345
19.912
-13.7196
8.93918
-0.693836
9.96265
-24.0707
13.2504
-12.829
-14.9555
-12.6344
5.54377
5.95643
9.08168
7.0064
-12.4491
-10.0872
-9.31139
8.65772
9.84505
10.0353
13.6466
15.7241
-4.93632
-7.67336
8.14657
5.15608
8.98784
3.64282
-12.9371
-13.0583
12.2917
13.496
4.16769
-17.5192
-21.1974
-9.19917
13.9754
-8.16732
4.13965
12.2149
12.4809
7.34154
7.38878
-6.78427
-7.23568
-9.09613
-13.6211
-13.1797
1.54688
-0.911498
14.0696
14.3056
3.69839
3.11362
15.4456
-10.2302
13.7994
12.7211
0.819575
-2.25774
13.3729
6.93368
12.2849
2.85122
15.9761
21.4448
6.28627
10.5164
8.13766
3.2354
10.6444
4.64905
4.9383
8.02841
7.94632
-15.2908
-15.3575
2.53592
-4.50462
-21.208
6.09657
-4.84867
-8.97316
16.241
0.382866
13.0842
-0.0830391
-1.03459
-11.5134
-13.6637
-8.4731
-9.69471
0.865812
-12.9164
-12.8282
6.11667
-1.46571
-2.46407
-1.22515
0.284927
1.44568
18.2828
-8.90766
-2.29209
-1.42419
-16.9944
22.6948
-4.24521
-27.5195
-22.2822
-25.0266
3.60906
-12.9275
-14.3554
12.3417
11.1309
-8.38016
10.97
-9.68899
-9.42612
0.980914
0.924696
0.848766
0.613439
-11.3823
1.10972
4.478
-3.88844
12.3354
-0.0115052
-1.07401
-15.9312
17.8536
8.4392
11.0579
7.95471
7.77085
-20.6231
-12.6802
11.4445
-17.4503
-5.65513
15.1677
15.5009
12.3656
13.6136
-14.0327
5.20753
2.47591
1.59675
11.8099
11.5065
9.12806
8.54921
9.314
5.47138
12.7375
6.96534
-4.30734
-1.28028
0.103599
-1.11552
-19.7572
17.8559
-3.40009
4.32647
4.59444
-12.1687
-12.2132
23.2824
-17.3971
-18.8063
19.3849
14.2161
-5.13
2.86028
-4.30711
-5.13873
5.62796
13.5523
1.18275
-12.2014
2.37218
1.39237
3.13926
3.97455
18.0766
18.028
-14.796
1.30759
-4.99417
-4.70535
2.63085
-6.75371
-10.5545
12.969
0.331731
1.18148
15.4415
15.3086
8.27681
8.78059
3.37215
3.83694
-0.110129
-0.611242
-1.01527
17.5228
-4.36955
18.8337
18.5945
19.216
-8.31314
-8.78923
-9.86752
6.56196
-6.78323
15.294
-6.52195
-5.53166
-6.81344
5.99414
-25.689
-7.36801
11.1025
12.0504
11.6638
14.8894
13.9529
13.9057
10.9821
10.9777
-13.4462
7.52583
12.8528
12.1532
-6.25644
-25.7561
11.8111
-24.5958
-19.6825
3.65032
4.42805
6.02534
6.6123
-17.2814
2.56563
4.06204
4.90766
13.1172
12.0316
1.84764
-1.67384
-2.18621
-0.344744
0.275195
-15.7176
-14.5387
2.61122
1.63719
14.2358
12.6079
12.1812
5.01334
5.74066
10.3984
9.36383
7.06717
10.1659
9.70342
8.84586
9.15106
9.31466
11.5629
3.40981
3.22391
3.12885
-3.8542
15.9304
8.67508
9.20703
13.6864
-4.98629
18.1199
0.554509
0.725476
-12.2906
-2.2264
-1.50537
-2.23764
-10.8741
-10.5814
0.653033
3.88571
3.12753
-2.4138
-1.34377
18.9478
9.8918
3.00258
3.88218
-3.89457
-13.8776
8.13557
16.4636
16.5558
10.4057
10.0361
-0.262172
-0.540973
-1.14084
-0.490652
0.0881267
5.42203
14.2494
13.1622
5.05829
18.2684
18.6143
18.7053
14.7874
15.0601
6.61073
13.9416
5.18413
5.69186
-2.7627
-1.7409
13.1819
12.1591
2.87241
3.67627
9.94775
10.8159
-6.66091
1.77307
1.88271
1.90805
6.11781
-12.1908
-9.32192
5.44368
6.072
-1.95787
-1.53977
-2.65877