/*--------------------------------*- C++ -*----------------------------------*\
  =========                 |
  \\      /  F ield         | OpenFOAM: The Open Source CFD Toolbox
   \\    /   O peration     | Website:  https://openfoam.org
    \\  /    A nd           | Version:  6
     \\/     M anipulation  |
\*---------------------------------------------------------------------------*/
FoamFile
{
    version     2.0;
    format      ascii;
    class       surfaceScalarField;
    location    "900";
    object      phi;
}
// * * * * * * * * * * * * * * * * * * * * * * * * * * * * * * * * * * * * * //

dimensions      [0 3 -1 0 0 0 0];

internalField   nonuniform List<scalar> 
44611
(
1.52417
-2.14743
0.623262
1.52417
1.4461
-1.4461
1.93947
-0.493369
-1.3192
-0.707771
2.02697
-1.3192
-0.0925247
-2.17531
2.09049
-0.566321
1.29694
-1.29694
0.180634
1.85448
-2.17629
0.730184
2.37679
-0.340668
0.413093
-1.73229
-0.797063
-1.2009
0.797063
1.29342
-0.553432
-1.33855
0.553432
0.743507
-0.595043
-0.824374
0.824373
-1.17128
1.35191
-0.0103804
1.28961
-1.27923
-0.13774
-1.86343
2.00117
1.52563
-0.215789
-1.30984
1.21996
-1.21996
-1.10291
1.10291
-1.51193
1.51193
-1.19498
1.19498
1.50537
0.020261
-1.92091
0.40898
-0.920268
-0.786318
1.70659
-1.62804
-1.26945
1.26945
0.124326
-1.42496
1.30064
-1.49467
1.49467
-1.28184
-0.22076
1.5026
-1.37379
1.37379
1.65552
-0.143591
-0.460545
1.51103
-1.05049
1.72161
-0.501648
1.32939
-0.214912
-1.11448
-0.701691
1.09993
-0.39824
1.18913
-1.46241
0.273274
-0.881192
0.881192
-1.14578
1.03972
0.10606
0.954461
-0.954461
1.19297
-1.3307
-2.28517
0.813567
-0.813567
1.01668
-1.23247
1.83024
-2.04603
-1.60995
-0.623019
-0.820611
-0.789337
-0.899145
0.899145
-1.04033
1.02995
1.92909
0.0927084
-1.4665
0.104342
-0.299687
1.21495
1.16185
1.73229
0.16654
0.533305
-1.21806
2.03867
-1.4665
-0.983544
-0.478861
1.30245
-1.30245
0.905145
-0.418949
-0.486196
1.33065
-1.14538
-0.185273
-0.800893
-0.643087
1.44398
0.000729668
-0.0792878
0.0785582
1.67781
-0.388206
-1.69833
-0.165104
-0.357501
0.909607
-0.552106
-0.0380743
0.0448633
-0.006789
-0.137286
-0.612309
0.749595
-1.16287
0.461179
0.0112787
0.0599967
-0.0712753
-0.0323941
0.0072829
0.0251112
0.856091
0.213618
-1.06971
-0.00174366
0.00174362
1.475
0.524528
0.240561
1.23444
0.798592
0.87922
-0.0229626
-0.00943154
1.23255
-0.504399
-0.72815
0.918069
0.314481
-1.07293
-0.625393
-0.265234
-0.8077
-0.982894
-0.477909
-0.910448
1.38836
0.00427398
-0.0423483
-0.00847092
0.0339182
-0.0254473
-0.728739
0.853066
-0.650801
-0.287148
0.937949
-1.1759
0.955141
0.000348622
-0.000348603
0.0919579
0.817649
0.997103
0.652545
0.86343
0.46722
1.15927
-0.295838
-0.0786413
0.639782
-0.561141
-0.363658
-0.480656
0.844314
0.41229
-0.746058
0.333767
1.14031
0.859686
-0.748771
0.758815
-0.0100435
-0.794614
1.06789
-0.889563
0.198599
0.690964
-0.886915
-1.11882
-0.844996
-1.44017
1.11023
0.337257
-1.44749
0.927999
-0.0719073
-0.199259
0.746763
-0.547503
-0.958088
-1.08794
-1.436
-0.850087
-1.11437
-1.61214
0.762055
-0.868073
1.27705
-0.346893
0.808094
-0.461201
-0.9825
0.174799
-0.418873
-0.537894
0.956767
-1.31084
0.891965
-0.265724
0.831565
-0.565841
-0.834206
-0.0762414
0.755324
-0.617395
0.831013
-0.893639
0.593951
0.0489417
-0.0376629
0.036234
-0.0447049
0.596883
-0.811796
0.850604
-0.684064
-1.49586
0.683055
-0.794137
0.111083
0.812804
-0.708462
0.901551
-0.089913
-0.811638
-1.40075
0.000962319
-0.000962313
0.000962339
1.07146
-1.07146
1.07219
-1.07219
-1.1544
1.36179
-0.207382
0.625368
-1.07933
0.453964
-0.295521
1.36771
-0.899309
0.581609
0.3177
-0.929542
0.0302329
0.829427
-0.624807
-0.204621
0.0285339
0.336481
-1.13109
-1.25539
1.25539
-0.440174
1.35824
-0.108013
-0.464172
0.00566306
0.458509
-0.152308
-0.311863
-0.642806
0.490498
0.372296
1.02484
1.40241
0.616088
-0.0207398
0.975881
-0.0787458
0.931812
-1.25177
0.358955
-0.839611
-0.283851
-0.934254
0.333637
0.600617
-1.11982
0.18557
0.0895606
-0.800002
-0.96389
-0.315335
-1.45726
-0.727075
-0.233384
1.72805
1.06725
-1.20219
1.30825
-0.0644344
-0.681623
-1.05337
1.69823
-0.644858
0.0860914
-1.41325
1.35631
1.97958
-0.862551
0.862551
-1.64698
0.784433
-0.00546078
-0.00250066
0.00796147
-0.0253737
0.0299495
-0.00457579
-0.00672647
0.00410494
0.00262155
0.0472805
-0.0568043
0.00952376
-0.00391434
-0.00416719
0.00808153
0.00409085
-0.00800519
-0.0567611
0.0118685
0.0448923
-0.593872
0.294539
0.299333
-0.0633165
0.0490928
0.0142237
0.0147313
-0.064034
0.0493027
-0.00413803
0.00822887
-0.00511236
-0.000890641
0.00600296
0.0181009
-0.000734556
-0.0173664
-0.00161097
-0.00924388
0.0108548
0.00549322
0.00469437
-0.0101876
-0.002293
-0.00573872
0.00803171
0.00523578
-0.00478481
-0.000451012
0.00849061
-0.00258609
-0.00590452
0.0119979
0.0135203
-0.0255181
0.0373593
-0.0253614
0.00115581
-0.00641087
0.00525505
0.00586649
-0.00471069
0.634665
-0.436066
0.0800245
-0.0432006
-0.0368252
-0.017071
-0.020257
0.0373281
0.0266853
-0.0466653
0.01998
-0.00318461
0.00318433
-0.00641471
0.00165335
0.00476134
0.0321642
-0.0125126
-0.0196518
-0.0481433
0.00919064
0.0389526
-0.0854809
0.015278
0.0702028
0.00357298
-0.00890721
0.00533422
-0.00841632
0.00561586
0.00280044
0.0970933
-0.0322951
-0.0647986
-0.00454198
0.0610278
-0.0564864
0.0443112
-0.0439892
-0.000321997
0.00158466
-0.0198845
0.0182998
-0.0583293
0.0155005
0.0428288
-0.038296
0.053699
-0.015403
0.003243
-0.00751121
0.00426819
-0.00582375
-0.00218144
-0.00590108
-0.007086
0.0129871
-0.0100683
-0.0387221
0.0341798
0.0282834
-0.0670057
-0.00377913
0.00922062
-0.00544148
0.0319708
0.00839244
-0.0403632
0.0184038
-0.00483902
-0.0135648
0.00289567
-0.00289557
0.00916037
-0.0281715
0.0190111
-0.00737358
0.00479458
0.00257899
0.0607366
-0.0612597
0.000522411
0.0305967
0.0320233
-0.06262
0.0563829
-0.0257862
-0.00505526
-0.00231835
-0.0199586
0.02102
-0.00106135
-0.00787035
-0.0120883
0.00372495
-0.010811
-0.00689947
0.0081329
-0.00123346
0.00490544
-0.00695875
0.00205328
-0.0243015
0.0390328
0.0205618
0.0107869
0.00731399
0.0180698
-0.0239852
0.0289575
-0.00497228
0.22501
-0.18781
-0.0371985
-0.00682438
0.00262649
0.00419788
-0.631295
0.344147
-0.0217494
0.013879
0.0867491
0.46349
-0.550239
0.0549123
-0.0714289
0.0165166
-0.003417
0.00515825
0.0128569
-0.0180152
0.00129426
-0.00129425
-0.0562371
0.473352
-0.417115
0.0132973
-0.00211066
-0.0111866
0.00878014
-0.00446772
-0.00431241
0.00530707
0.00318355
0.0077944
-0.0263359
0.0185416
0.0182711
-0.0216386
0.00336746
0.00948111
0.00879003
-0.0261361
0.0529434
-0.0268073
0.005115
0.00366513
-0.00241458
-0.00440981
-0.013299
-0.0159735
0.0292724
0.00189556
0.00824962
-0.0101452
-0.00403879
0.0060349
-0.00199612
-0.00732667
0.00328787
0.00663805
-0.000603154
0.000505831
0.0150807
-0.0155865
-0.00931407
-0.029139
0.0384531
-0.00953087
-0.0357623
0.0452932
-0.430114
0.356044
0.0740702
-0.0336927
-0.00460327
0.0181922
0.0307394
-0.0489316
0.0163049
-0.00331779
-0.0204212
0.0196199
0.000801328
-0.0169743
-0.00344683
0.0264689
-0.0169878
-0.0495512
0.0282287
0.0213225
-0.00118318
0.00679063
-0.00560747
-0.00241253
0.054219
-0.0518069
0.0583237
0.0498389
0.00437976
-0.00158192
0.0242777
-0.0226958
0.0162317
-0.0157258
0.0146497
-0.00562262
0.021638
-0.0160154
0.00527232
-0.0194328
0.0141604
-0.00926611
-0.00886877
0.0181349
0.00983185
0.006473
0.000565733
-0.00239577
-0.027105
0.0187729
0.00833211
-0.0225924
0.0251291
-0.00253668
-0.0496974
0.043902
0.00019285
-0.00660756
-0.00365044
0.00550471
-0.00185427
-0.0266939
-0.567178
0.0553979
0.034055
-0.0894533
-0.013377
0.00685344
0.00652352
0.0105402
-0.00707113
-0.00346906
-0.0476457
-0.0273789
0.0750238
0.320319
-0.529136
0.208817
-0.00499013
-0.00507814
-0.0884761
0.222884
-0.134407
-0.921553
0.309244
-0.00551812
0.00633235
-0.000814232
-0.00777918
0.00704462
0.0339181
1.40327e-07
0.0256344
0.00828374
0.0242779
0.00727877
0.0137412
0.0125511
0.00409521
0.00964599
0.000769026
-0.0237316
-0.0165973
0.0066766
-0.0159187
0.00924214
-0.0155066
-0.00109071
-0.00883004
-0.0248261
8.80042e-05
0.0247381
-0.0391307
0.0136835
-0.245703
-0.184411
-0.0253485
-0.037968
0.0230453
0.0306537
0.0313774
-0.390091
0.494061
-0.10397
-0.511462
0.501419
0.00165819
-0.00165818
-0.00597236
0.00253504
0.00343732
-0.0770752
0.0294291
-0.00327996
0.0475911
-0.434696
-0.486857
0.164803
-0.599498
-0.554293
0.067435
0.00276178
0.029209
0.0261062
-0.0267106
0.000604431
0.0424605
-0.0462739
0.00381345
-0.00776099
-0.0138776
-0.0133836
-0.00412386
-0.00975374
0.0581503
-0.142066
0.083916
0.244618
0.222436
-0.467055
0.345349
-0.100731
0.556204
-0.0179999
0.0205446
-0.00254469
-0.0146398
0.0228383
-0.00819848
-0.0326397
0.0433828
-0.0102142
-0.048816
0.0590303
0.0363597
-0.000125642
0.0261455
-0.0351877
0.0269893
0.00217155
-0.0225619
0.00550345
0.00309557
-0.00859901
-0.00300014
0.0073406
-0.00434044
-0.0482836
0.000140285
-0.0160996
0.0427848
0.0274782
0.0210818
-0.04856
0.0364787
-0.0298936
-0.00658504
0.0311432
-0.0304136
0.0328907
-0.0286167
0.00837303
-0.00263736
-0.00573565
0.510994
0.123671
0.582548
-0.0715539
0.885914
-0.418693
0.0859113
-0.00732297
0.000907832
0.00641513
-0.0081122
0.00265142
-0.00968202
0.0066468
0.00303521
0.00168146
-0.0113635
0.0118063
-0.00515949
0.00478621
0.019531
-0.0243172
0.00908498
0.00238069
-0.0114657
0.00678799
-0.00756634
0.000778357
0.00531277
-0.00690141
0.00158865
0.00329185
-0.00694228
0.0125091
-0.02958
-0.0086992
-0.0065184
0.0152176
0.00599503
-0.0146942
0.00722559
-0.013744
-0.0208649
0.0114333
-0.00476949
0.0309149
-0.0082525
0.0119774
-0.00696509
0.0117513
0.0237287
-0.491054
0.548075
-0.0570208
-0.0219962
-0.00387238
0.0258686
0.00143441
0.0180966
0.0142242
0.0210595
-0.0765446
0.0554849
-0.0357955
0.0568549
0.00036742
-0.00562948
0.00526205
0.00633615
0.000301898
0.00670356
-0.00532758
0.759225
0.00905981
-0.768285
-0.0524128
-0.512393
0.193259
0.319135
0.0356344
0.00682608
-0.00893444
-0.0350548
0.0267
-0.039825
0.0711908
-0.0313659
0.443104
-0.547596
0.104491
-0.0385614
-0.0299928
0.0685543
-0.0729387
0.0343773
-0.358596
0.595178
-0.236582
-0.579353
0.558613
-0.0594525
0.1634
-0.103948
0.102061
0.122949
0.00321499
-0.00308213
-0.000132866
0.255738
0.113926
-0.369664
0.261401
0.0184251
-0.0168405
0.00805395
0.0243645
-0.0324185
-0.0215742
-0.0110655
-0.032592
0.0230612
-0.0167107
0.0498775
-0.0331667
-0.886038
-0.188285
1.07432
0.571557
0.373672
-0.945228
0.470316
0.287431
-0.757748
0.180652
0.289665
-0.508524
0.619607
-0.467357
0.63216
-0.305832
0.392581
-0.440931
0.362185
0.754766
0.0121116
0.0200526
-0.019906
-0.00407914
0.030417
-0.0220245
0.00504327
0.0309189
0.00182185
0.00871832
-0.00751611
-5.47807e-05
0.00757088
-0.00569426
0.00866353
0.505891
-0.0424003
-0.0895471
0.44742
-0.357873
0.416344
0.00113875
-0.00184755
0.00070878
-3.61825e-05
0.00236705
-0.00233088
0.0588188
-0.766996
0.708178
0.00224461
-0.000200623
-0.00204399
0.161943
-0.103793
-0.0392258
1.17954
0.28563
-0.96264
0.67701
-0.00129831
-0.00188638
0.0018805
-0.00317883
-0.753713
0.33941
0.414303
0.573062
-0.859581
0.494026
0.365555
0.0836863
-0.0226584
-0.267861
0.498259
-0.230398
-1.20037
0.557283
-0.00148737
0.00148734
-0.696141
0.669447
-0.00922746
0.00417218
0.777563
-2.03296
0.749099
-0.758168
0.00906945
-0.555547
1.62701
-0.609756
0.69837
-0.0886139
0.385046
0.257994
-0.64304
0.82815
0.00227509
-0.00227509
-0.244469
0.780953
-0.536484
-0.735523
-0.466824
0.800461
-0.623415
0.0356796
-0.0714751
-0.861755
-0.338616
-1.28577
0.824571
0.536176
-0.614818
-1.03741
0.471573
0.0447415
0.463656
0.880156
-1.34381
-0.831517
1.29517
-1.38706
-0.772114
0.353165
-0.689999
-0.082114
-0.868302
0.00872116
-0.809483
1.33925
-0.814717
0.184842
0.394075
0.00130732
0.00243876
-0.00374605
-0.129877
0.364185
0.213731
-0.90373
-0.365293
0.152737
0.212556
-1.06638
0.624433
0.124666
-0.633154
0.00276953
-0.00299406
0.000224515
-0.955281
0.0309447
0.0807835
0.0242969
-0.468248
0.651547
-0.183299
-0.34453
1.47897
-1.8235
-1.00956
-0.104812
0.923469
0.520513
-0.019291
-0.0914482
0.0721572
0.831532
-0.511213
0.363285
-1.69412
1.3986
0.896933
-0.403528
0.211158
0.192369
-0.992373
1.85492
-0.737345
0.536261
0.201084
-0.261323
-0.476022
-0.20794
1.247
-1.45494
0.00233104
-0.000672838
-0.305574
0.783461
0.0453914
-1.31799
0.198169
-0.519402
-0.00138538
0.00138539
-0.0116525
-0.610229
1.54135
-0.179563
0.611808
0.062994
0.034099
-0.0241866
0.0562099
0.240271
0.115773
-0.163256
0.0108139
0.607574
-0.598514
-0.555161
-0.28445
0.901472
-0.418758
0.00229139
-1.63358e-05
0.646763
0.0323085
-0.480085
-0.589892
-0.0335228
-0.900337
0.310445
-0.534782
0.709133
-0.433412
0.549185
-0.717862
-0.265334
0.476492
-1.34633
-1.48992
0.649415
-1.0447
0.054608
0.00177488
-0.253542
0.831831
-0.578289
0.0408849
-0.0904985
0.0531581
0.0373394
-0.0537572
-0.0367426
-1.19002
1.05239
0.137629
0.227569
-1.27227
0.828186
-0.361836
0.0307233
0.230182
-0.260905
-0.0863155
0.117039
-0.0077542
0.0219784
0.0159745
0.0165403
0.00476373
-0.393567
-0.569074
-0.619057
0.0915795
-1.55808
-0.0236232
-0.0612861
0.77042
-1.532
0.761578
-0.879615
1.65004
-0.754436
0.212865
0.163527
1.23078
1.55808
0.16997
0.0546268
-0.0525466
-0.00208041
-0.00663316
1.64315
-1.02706
0.914995
-0.282713
0.0045051
-0.0959533
-0.0756275
0.0801326
0.873804
0.200519
0.688531
-1.06245
0.643752
-0.373914
-0.937311
0.477906
-0.653188
0.0368622
0.817815
0.535102
-0.576235
-0.898386
0.322151
-1.08794
0.539064
-0.0471729
0.11933
0.0329598
0.149999
-0.00343099
0.00324356
0.000187448
-0.00212366
-0.145265
-0.572596
-0.390968
0.0183222
1.58835
1.0867
0.00173026
-0.00441288
0.00268262
-0.00344097
0.00517123
0.0100203
-0.0059868
-0.00403353
0.0024817
0.00753863
-0.00351145
0.00646884
-0.0029574
0.00535669
0.000205104
-0.0055618
-0.00119845
0.0093126
-0.00811415
0.00690898
-0.00641773
-0.000491254
-0.00474439
-0.0021638
0.00690819
-0.000679414
-0.00542098
0.00610039
-0.00434955
0.00206868
0.00228087
0.00137657
0.00707188
-0.00844846
-0.00132686
0.0105809
-0.00925402
-0.0101255
0.00347435
0.00665114
-0.00111584
0.00953046
-0.00841462
-0.0153561
0.0152029
0.00015316
-0.00668576
0.00336887
0.00331689
0.00982061
-0.0112073
0.00138674
-0.0171269
0.0113762
0.00575069
-0.0045138
0.00426838
0.000245405
0.00778006
-0.00910692
-0.0173163
0.00154991
0.0157664
-0.00940282
-0.00791353
-0.0069209
0.00290292
0.00401797
0.00030152
-0.00722242
0.00456179
0.00440961
-0.0089714
-0.00755757
0.000510986
0.00704658
-0.0026628
-0.00489477
0.000743106
0.00517237
-0.00591548
0.00878286
-0.00970872
0.000925848
0.00832846
0.000454415
-0.00772325
-0.00297142
0.0106947
-0.0056361
0.00495669
-0.00155242
-0.00466254
0.00621496
0.00285799
0.00413765
-0.00699564
-0.00761233
0.00692536
0.000686964
-0.00272011
-0.00489221
0.00608173
-0.00874454
-0.00949072
0.00151538
0.00797534
-0.00348472
-0.006006
0.00106121
-0.00607152
0.00501029
0.00455187
-0.000748436
-0.00380343
0.00401573
0.000536135
-0.0160935
0.0286026
-0.0024488
0.00467359
-0.00222481
-0.00526969
-0.000515393
0.0057851
-8.64707e-06
-0.00526105
0.00184872
-0.00329328
0.00144456
0.0243921
-0.0365722
0.0121801
0.0263558
-0.00823226
-0.0181235
0.00237212
-0.00870022
0.0063281
0.010806
-0.00119412
-0.0096119
0.00384949
-0.0026841
-0.00116538
-0.00745304
-0.00269337
0.0101464
-0.0139236
0.00902925
0.00489437
0.00499056
-0.0100611
0.0050705
-0.00527736
0.00105503
0.00422234
0.0135648
-0.00273603
-0.0108288
-0.00894038
0.0225052
5.79777e-05
0.00753648
-0.00759446
0.00251824
0.00749698
-0.0100152
-0.00661507
-0.00159444
0.0082095
0.00572012
-0.0121056
0.00638552
0.00836701
-0.00692237
-0.00144464
0.00305546
-0.00880541
0.00574995
0.00996572
-0.0223683
0.0124026
0.00214636
-0.00668852
0.00454216
-0.00692149
-0.000771027
0.00769252
0.00951373
-0.00505355
-0.00446018
-0.00819246
-0.00076668
0.0089591
-0.00703984
-0.000622972
0.00766282
0.00517503
-0.323795
0.31862
0.191006
-0.185831
0.00962438
0.000439209
-0.0100636
-0.00180304
-0.00803723
0.00984027
0.0010057
-0.00430968
0.00330398
-0.00902409
0.00597556
0.00304853
0.00146689
0.00830491
-0.00977179
-0.0113146
-0.00404149
-0.00463861
-0.00667597
0.0110676
0.0152882
0.00799657
-0.00799656
-0.00460009
-0.00448168
0.00908176
-0.00940972
-0.0058759
0.0152856
0.00642224
-0.00253119
-0.00389106
0.00740233
-0.00679216
-0.000610165
0.00490167
-0.00581309
0.00772623
-0.00191314
-0.00885188
0.000991168
0.00786071
-0.00397048
-0.0048814
-0.00803292
0.00780188
-0.00780188
-0.00187122
-0.0043416
0.00621282
-0.00775411
0.00750233
0.000251781
-0.00105952
-0.00669459
-0.0038887
0.00662464
-0.00273595
-0.00590337
0.00351449
0.00238888
0.00159969
-0.00750306
-0.0047162
-0.00247652
0.00719271
-0.0106922
0.00473762
0.00595455
-0.00918967
0.00966015
-0.000470478
-0.00508714
-0.00410253
-0.000186391
0.0179103
-0.017724
-0.019065
0.02928
-0.0102151
0.00509173
0.000144023
0.00792428
0.000706813
-0.00863109
0.00980418
0.0066263
-0.0164305
0.0286617
-0.0426867
0.014025
-0.00853365
0.0102247
-0.00169105
-0.0054758
-0.0106067
0.0160824
0.0084179
-0.00540979
-0.00300811
0.00172755
0.00669035
-0.00430148
-0.00425985
0.00856133
-0.00650035
0.00955582
-0.0115105
0.0048954
-0.00441951
0.0099854
-0.00556588
-0.00122861
0.00340311
-0.00217451
0.00407614
-0.00590874
0.00183258
-0.00946748
0.00195049
0.00751699
0.0108053
-0.00332494
-0.00748034
0.00443292
0.00637237
-0.00524063
0.00120575
0.00403486
-0.00465644
0.0046478
-0.00824807
-0.000557358
-0.00572982
0.00301549
0.00441229
-0.00742779
0.00462698
0.00393558
-0.00856256
-0.00468884
0.00962873
-0.00493989
0.00808255
-0.00914207
-0.0087109
0.00771781
0.000993086
-0.00567206
0.00223108
0.00823845
-0.0030462
-0.00519225
0.00995556
-0.0108509
0.000895371
-0.00393026
0.00345744
0.000472903
0.00555989
0.00323874
-0.00879863
-0.00533935
0.0147466
-0.00940727
-0.0150593
0.00565652
-0.00523872
-0.00819568
-0.00730533
0.015501
0.0134122
-0.0216079
0.0389206
0.0101722
-0.0088845
0.00620211
0.00268238
0.00635329
0.00136562
-0.00771891
0.00771735
0.00483084
-0.0125482
0.0294869
-0.0570276
0.0275408
0.0445736
-0.0150869
-0.00633002
0.0059749
0.000355121
-0.0223916
-0.0269007
0.0492922
0.119608
-0.0140791
-0.105528
-0.00619699
0.00769463
-0.00149764
0.0283649
-0.00175486
-0.02661
0.0410806
-0.0127157
-0.00233567
0.00692655
-0.00459088
0.00129987
0.0101945
-0.0114945
-0.00471919
0.000437075
0.00428214
-0.000699785
0.00901604
-0.00831626
-0.00841424
0.0113173
-0.00290309
0.0163417
-0.0114882
-0.00485353
-0.00089957
-0.00459404
0.0054936
-0.00176174
-0.00369145
0.0054532
0.00564411
0.00429684
-0.00994093
0.00544948
0.000878561
-0.00632804
0.011099
-0.00648892
-0.00461003
0.00979789
0.00130106
0.00459468
0.00506956
-0.00966424
0.00812565
-0.00356386
-0.000848798
-0.00633088
0.00717967
0.00198679
-0.00753602
0.00554923
0.0109357
-0.00845398
0.0106503
-0.00803743
-0.00261289
-0.00555252
0.000440133
0.00654499
-0.00356506
-0.00297993
-0.000140762
-0.00911607
0.00555101
-0.00349764
-0.0040941
0.00759173
0.0104894
-0.0122925
-0.00821926
0.00391778
0.00299816
-0.0083581
0.00535992
0.00657112
0.00714381
-0.00499746
-0.0108371
0.00314546
0.00769161
0.00608857
-0.00396812
-0.00212045
-0.00288893
-0.000838855
0.00372778
8.06424e-05
0.00513552
-0.00521617
0.00653726
-0.00645663
-0.000668444
-0.00789925
0.00856769
-0.0799331
-0.192421
0.272354
-0.0361346
0.0308433
0.00529125
0.00584107
0.000813504
-0.00665457
-0.00304343
-0.00757973
0.0026851
0.00489463
-0.00680427
-0.0067024
0.0135067
-0.00540087
-0.00818731
0.0135882
-0.0040236
0.00880051
-0.00477692
-0.00433701
0.0105779
-0.00624093
0.00571156
-0.00368619
-0.00202537
0.000839887
0.00487167
-0.00243178
-0.00208202
0.0019485
0.00610138
-0.00804989
0.00186239
0.00546205
-0.00732445
0.000347195
-0.00796474
0.00761755
0.00368138
0.0121628
-0.0158442
0.000450059
-0.00755742
0.00710736
-0.00646174
0.0069118
0.00400299
-0.00624611
0.00224312
-0.00574809
0.0070995
-0.00135141
-0.00101211
-0.00473598
0.00713689
0.00490387
-0.0120408
0.413724
-0.220465
-0.00554025
0.0111209
-0.00558062
-0.0109208
0.00319759
-0.00945393
0.00719586
-0.00529856
-0.0018973
0.00482274
0.00135495
-0.00617769
0.00720815
-0.00594245
-0.0012657
-0.00119236
-0.00694029
0.00813265
-0.00103774
-0.00740179
0.00843953
0.0028828
-0.00914567
0.00626287
-0.00811156
-0.00763522
0.0157468
0.000380365
0.00673705
-0.00711742
0.000418922
0.00618522
-0.00660414
-0.000754568
0.00847192
-0.0100869
0.00358649
-0.00258988
-0.007924
-0.00731704
0.00687242
0.000444619
-0.00324479
-0.00407225
0.00699079
-0.00650992
-0.000480871
0.00389323
0.00309756
-0.00689939
0.00918904
-0.00228965
-0.00743815
0.000538762
-0.00522372
-0.00432521
0.00954893
0.00530886
-0.0171642
0.0118554
0.012105
-0.00778048
-0.0043245
0.00732842
0.00477656
-0.0401879
-0.0165733
0.00493222
0.00394013
-0.00887236
-0.0102544
0.00660752
0.00364692
0.00339615
0.00372241
-0.00711857
0.0160186
-0.00803008
-0.00798849
0.010176
-0.0145382
0.00436218
-0.00407258
-0.0041311
0.00820368
3.17474e-05
-0.00884601
0.00881427
-0.00454731
-0.00710535
0.0116527
0.00948356
-0.00691327
-0.00257029
0.00403335
0.0055002
-0.00953355
-0.00208628
-0.00780341
0.00988969
-0.0048988
-0.00452206
0.00942087
0.00285981
0.00494402
-0.00780383
0.00761883
-0.00803431
0.000415469
0.00114497
-0.00897196
0.00782699
-0.0262311
0.0205088
0.00572228
0.00795626
-0.0341874
0.0101371
-0.00690757
-0.00322954
-0.00780978
0.00106912
0.00674065
0.00356288
0.00452575
-0.00808863
0.000907295
0.00315734
-0.00406464
0.0577103
0.0241147
-0.081825
-0.0277705
0.00841488
-0.00838313
0.00499064
0.00150433
-0.00649497
0.000288021
0.00585962
-0.00614764
-0.02192
0.014909
0.00701105
-0.0138378
-0.00808222
0.00212237
-0.00737138
0.00524901
-0.0408608
0.000497589
0.00837099
-0.00862042
0.00024943
0.00515459
0.00596924
-0.0111238
0.00702962
-0.00226631
-0.00476331
0.0197339
-0.0105736
0.0108842
0.00650879
-0.017393
0.000158517
-0.00851542
0.0083569
0.00182448
-0.0129288
0.0111043
0.000176698
-0.0128766
0.0126999
0.00523524
-0.00765476
0.00241953
-0.00996801
0.00317454
0.00679349
-0.00353306
-0.00506649
0.00859956
0.00304552
0.00541451
-0.00846003
0.00703468
-0.00673316
0.00452563
0.00370507
-0.00823069
-0.00933802
0.00444761
0.00489042
-0.00181429
-0.00752373
-0.00728857
0.00801417
-0.000725598
0.00831448
-0.000757557
-0.00755692
-0.00165505
-0.00200046
0.00365551
-0.00312055
0.0133242
-0.0102036
0.000296207
0.0112246
-0.0115208
0.000160726
-0.00976145
0.00960071
0.00771977
-0.0125191
0.00479935
-0.011312
0.00327477
-0.00837845
-0.00293355
-0.00713584
-0.00455939
0.0116953
0.00429214
-0.0103501
0.00605793
-0.0077353
-0.000961425
0.00869672
-0.0057868
-0.00825
0.001677
-0.00599836
0.00432136
-0.00326605
0.00491938
-0.0228645
0.0123236
0.010541
0.00786312
-0.00115117
-0.00671195
-0.00594538
0.00662335
-0.000677969
0.0145216
-0.00434559
0.00925052
0.00527105
0.011673
0.00883464
-0.00790867
-0.000925929
0.00179477
-0.00444883
0.0327319
0.0100252
-0.00292609
-0.0070991
0.00794029
-0.00907873
0.00113844
0.00098661
0.00695368
0.00785425
-0.00876065
0.000906407
0.00361554
0.00423871
-0.00227181
-0.0167932
-0.0112122
-0.00995339
-0.00683978
0.00792901
-0.00185676
-0.00607225
-0.00650814
0.00606674
0.000441395
0.00305607
0.00260931
-0.00566538
-0.0130164
0.0063845
0.00663188
-0.00607027
-0.00549146
0.0115617
-0.02321
-0.0190321
0.0422422
-0.00958698
0.00600986
0.00357713
-0.00547523
-0.00411175
0.0108845
-0.00812498
-0.00275955
0.00301801
0.00746659
-0.0104846
-0.00861312
0.00741467
0.00198106
-0.00871309
0.00673203
-0.00672965
0.00542698
0.00130267
-0.00181613
0.00341101
-0.00159489
-0.00432082
0.0159804
-0.0116596
-0.024411
0.0200902
0.137793
-0.241763
-0.186002
0.0622168
-0.0178812
-0.0443359
-0.0104903
0.00453375
0.00595658
-0.0115925
0.00110216
-0.00399452
-0.00561944
0.00961395
0.00549716
-0.00949168
-0.0122491
0.0214411
-0.00919198
0.0177004
0.0270603
-0.0056192
-0.00928212
-0.0431484
0.0524306
0.0328193
-0.0421014
-0.00173699
0.00844053
-0.00484028
0.0236887
-0.0188483
0.0112371
-0.028349
0.0171119
0.00173492
-0.00825653
0.00652159
0.0171196
-0.00422637
-0.0128932
0.0147957
0.00232386
0.00528751
0.00449301
-0.00978054
-0.00472773
-0.00998436
0.018808
-0.00882361
0.00342529
-0.00518703
-0.00308285
-0.0376001
-0.0359276
0.0735272
0.0452542
-0.0659758
0.020722
0.00481445
0.00544656
-0.010261
-0.00206627
0.00688073
-0.000477546
0.0059241
0.00233851
0.00518816
-0.00752668
-0.00226773
0.00782751
-0.0055598
0.00611657
0.00181244
-0.00429185
0.00922407
-0.00228008
-0.00199804
0.0042782
-0.0101469
0.0131713
-0.00302437
-0.00550363
0.0143427
-0.00883898
0.00938222
-0.00107731
0.0064108
0.0102856
-0.00143204
-0.00885357
0.00386018
0.0039323
-0.00779248
-0.0112662
0.00586537
-0.00386191
-0.0068641
0.010726
0.00857914
-0.00470193
-0.00387721
0.00209023
-0.0058897
-0.00419519
0.0100849
-0.00573118
0.00368979
-0.00788498
0.00299715
-0.00900138
0.00600423
-0.00632486
0.009322
0.0057937
-0.00429645
-0.00149726
-0.00845391
0.00456284
0.00389108
0.00850744
0.00133875
-0.00984619
0.00307727
0.00394789
-0.00702517
0.00467696
0.00567544
0.00851721
-0.0101282
-0.00814276
0.00305351
0.00508925
0.0172992
0.0228581
-0.0401572
0.0367079
-0.0192959
-0.017412
0.000426671
0.00654275
-0.00696942
-0.00565922
0.00608589
0.0020215
0.00452125
0.00922086
-0.00398562
0.00380283
0.00481594
-0.00861877
-0.000191457
-0.00446498
0.00543209
-0.0014291
-0.00589408
-0.0115021
0.00929965
0.00220246
-0.0111715
0.0104717
0.00726094
-0.00320505
-0.00405591
0.0018249
0.0115873
0.0117906
0.00548862
0.00609865
0.00611125
-0.00959597
-0.00145166
-0.00888906
0.0103407
0.0131212
0.00178809
-0.0149093
0.0205917
0.00836582
0.0318288
-0.00302236
-0.00629312
0.00931544
-0.00691404
0.00389168
0.00408811
-0.0046035
-0.00893684
-0.0284113
0.0373481
0.000789849
0.00737097
-0.00816082
0.0103288
-0.00799688
-0.00233192
-0.0166445
-0.000429992
0.0170745
-0.044116
0.0204955
0.0236204
0.0351642
-0.0259416
-0.00922261
0.0030909
0.00619681
-0.0092877
0.0130165
-0.0203218
-0.000116549
0.00623311
0.00483881
-0.00495537
0.00409089
0.00214222
0.00408426
0.00522834
-0.00532292
0.00940718
-0.00204374
0.00727208
0.00862269
-0.0224605
-0.005943
0.00504343
-0.00601881
0.00414094
0.00187788
0.000334474
0.02177
-0.025176
0.00340598
-0.00673367
-0.00395849
0.0051103
0.00179868
0.00585341
0.00724815
0.00854681
-0.00656575
-0.00659201
0.00659191
-0.0383341
0.0130815
0.0252526
0.00541675
-0.00709706
0.00168031
0.00709374
-0.00161741
0.00424147
-0.00262405
-0.00192481
0.00192481
0.0189131
0.0177948
-0.0081145
0.00730394
0.000810559
0.0316563
-0.00100253
0.00665073
0.00394461
-0.0105953
-0.00214098
0.00879171
0.00180733
0.00787268
-0.00968
0.00696897
-0.00357283
0.00878663
-0.00982437
0.0378103
0.0185605
-0.0563708
-0.00546924
-0.0050575
0.0105267
-0.0133801
-0.00326435
-0.000373379
-0.0130067
0.0140217
-0.017286
-0.00675438
0.000461247
0.0253394
0.00187894
-0.0272184
0.0100751
0.0152643
-0.0266649
0.0285439
-0.00272612
0.00751778
-0.00479167
0.00321485
0.00481036
-0.00802521
-0.00396816
0.00396812
-0.00455715
0.00777626
-0.00321913
-0.00714324
-0.033966
0.0166215
0.0173445
-0.012196
-0.00778955
0.00429221
-0.004292
-0.00362275
0.00362271
-0.00300259
0.0126386
-0.00963599
-0.000899387
-0.00821481
0.00911419
-0.00896153
0.00685189
0.00210958
0.000987195
-0.0057108
0.00472358
0.00623505
-0.00138294
-0.00485211
0.00722224
-0.0107529
0.00930129
-0.00766837
0.00727555
0.000392808
-0.00488822
-0.00202584
0.00579245
-0.0101295
0.0029824
-0.00298244
0.0047901
0.00333555
0.00512457
-0.0119613
0.0035986
0.00836267
-0.0147444
-0.000178691
0.0149231
-0.000309688
-0.00980486
0.0101145
-0.00762327
-0.00915821
0.0167814
0.006154
-0.00416721
0.00295353
-0.00643825
0.00348471
0.0257753
-0.000475891
-0.0252994
0.0236312
0.00342909
-0.00693051
0.00752099
-0.000590484
-0.0114722
0.00466791
-0.0136503
0.00217816
0.0132749
-0.00860699
-0.00954338
0.00102796
-0.00668297
-0.00286041
0.00109841
0.00577401
0.0176356
0.00997925
-0.0276149
0.00390465
0.00618021
-0.0100849
0.007294
-0.0167592
0.00946515
0.00436035
-0.00436014
-0.00929591
0.0025458
0.00675011
0.00310258
-0.0084275
0.00532491
0.00289667
-0.0028967
0.00842164
-0.00540362
-0.0121544
0.0100188
0.00213559
0.00276367
-0.00739765
0.00463396
-0.012718
0.0142679
0.00427922
-0.00773247
0.00345325
0.0069057
-0.00544997
0.00595305
-0.000503091
0.00582329
0.00066639
-0.00648968
-0.0208184
0.0238514
-0.00303295
0.020858
-0.000268038
-0.02059
0.010101
0.0051019
0.0102777
0.0123959
-0.00387648
-0.0100471
0.00437634
-0.00825282
0.000221706
-0.0102688
-0.00379009
0.00598681
-0.00219672
0.00361947
0.00274953
-0.00636901
-0.00566052
0.00566045
0.00417555
0.00381788
-0.00799343
0.00207063
-0.00207064
0.00559015
-0.0102921
-0.00769736
0.00787545
-0.000178075
-0.265007
0.060219
0.204789
-0.166206
0.244331
-0.0781254
-0.431213
0.30455
0.00897661
-0.000608618
-0.008368
-0.00682532
0.000574439
0.00625088
-0.00406164
-0.465225
0.321298
0.143927
-0.15297
-0.312256
-0.00053479
0.0103327
-5.35567e-07
-0.0147438
0.0138327
-0.0086439
-0.00518884
0.0138322
-0.00650619
0.00600583
0.000500352
-0.00436725
-0.00689981
0.0112671
-0.00703012
0.00618132
-0.00738964
-0.000723768
0.0081134
0.0220216
0.00408455
-5.79461e-05
-0.0207605
-0.0300511
0.0343222
-0.00427118
0.0110296
-0.00882622
-0.0030601
0.00306009
0.00177953
0.00692285
-0.0087024
-0.00648798
-0.00255577
0.00904374
-0.00470846
0.00436706
0.00290228
0.00412734
0.00652175
-0.0109959
0.0132066
-0.00221069
-0.000261387
0.0186373
-0.0183759
0.0210958
-0.0213572
-0.000695694
-0.00500222
0.00569791
-0.0338499
0.00954348
0.0243063
-0.0294179
-0.00443194
0.0356126
-0.0260691
0.00425948
0.00245318
-0.00671267
0.00546522
0.00652932
-0.012039
-0.000875576
0.0129146
-0.0100259
-0.00201315
-0.00299625
0.0550459
-0.0520497
-0.0161035
-0.0222306
-0.00505355
-0.00167294
0.00120634
-0.00524292
0.00403656
-0.000825202
-0.00602797
0.00685317
-0.00699879
0.00617359
0.00293852
0.0134982
-0.0164368
-0.0140538
-0.00351388
0.0175677
-0.0111153
-0.0063317
0.00741988
-0.00108818
-0.00496609
0.00726281
-0.00143952
-0.032577
-0.000940706
0.0335176
-0.012911
-0.019666
0.0342693
-0.03521
0.0216
-0.0188383
-0.00511055
-0.00121676
0.00121677
0.00455947
0.00130702
-0.00154596
0.0061054
-0.0129064
-0.0154427
-0.0177466
0.00148738
-0.00148738
0.00302768
-0.00302753
-0.00174515
0.00174523
0.00593093
-0.00119332
0.00121474