/*--------------------------------*- C++ -*----------------------------------*\
  =========                 |
  \\      /  F ield         | OpenFOAM: The Open Source CFD Toolbox
   \\    /   O peration     | Website:  https://openfoam.org
    \\  /    A nd           | Version:  6
     \\/     M anipulation  |
\*---------------------------------------------------------------------------*/
FoamFile
{
    version     2.0;
    format      ascii;
    class       volVectorField;
    location    "900";
    object      U;
}
// * * * * * * * * * * * * * * * * * * * * * * * * * * * * * * * * * * * * * //

dimensions      [0 1 -1 0 0 0 0];

internalField   nonuniform List<vector> 
29884
(
(7.49234 0.0598626 -1.03982e-16)
(5.33372 0.0256955 8.905e-17)
(5.41217 -0.115446 5.05284e-17)
(7.11058 -0.075927 1.71078e-18)
(7.21659 0.103569 -3.05172e-17)
(5.74376 0.155782 7.40046e-17)
(7.90196 -0.117355 -3.49838e-19)
(7.40083 -0.000214107 4.25269e-17)
(4.70254 0.121441 2.48455e-17)
(7.13536 0.0178331 7.96507e-17)
(7.44377 0.00881514 -3.3422e-17)
(7.20164 0.195507 2.25383e-17)
(8.07925 -0.132187 -2.40464e-17)
(7.1711 -0.112498 2.44456e-17)
(7.19458 0.0995367 -3.29415e-17)
(4.43865 -0.0565062 8.53689e-17)
(8.23824 0.0513757 -3.53426e-17)
(6.67788 0.195347 -5.95184e-17)
(6.52992 0.16295 0)
(4.18445 -0.0038229 -1.65306e-16)
(7.80638 0.209354 1.45202e-16)
(4.94067 -0.0377997 0)
(8.00611 -0.0624084 -4.57228e-18)
(7.11443 -0.0216366 0)
(7.07081 -0.0131553 0)
(7.59569 0.0438285 -2.83266e-17)
(7.85922 -0.00897762 0)
(8.03321 -0.0463704 8.49409e-17)
(5.16218 -0.0249095 9.00038e-17)
(5.17441 0.113755 7.00289e-18)
(5.39979 -0.0081601 -1.84382e-17)
(4.81416 0.0890259 5.01525e-16)
(8.00615 0.0346329 -2.50511e-17)
(7.4431 -0.0311561 0)
(7.27746 -0.0592543 -8.05494e-17)
(7.50839 -0.105258 6.3031e-17)
(5.02821 -0.0354793 7.78092e-17)
(7.5509 0.132342 9.93697e-18)
(5.35667 0.146118 -8.08551e-17)
(7.79109 -0.154443 -3.68341e-17)
(5.03548 -0.0516767 0)
(7.05815 0.0706206 1.88211e-17)
(7.60494 0.194023 -4.81646e-17)
(7.23478 0.282085 -3.16459e-16)
(6.97479 -0.015675 1.92395e-17)
(7.58902 -0.151533 -2.16137e-17)
(8.03925 -0.209304 0)
(7.68805 -0.120394 -6.61043e-18)
(4.80719 0.0345379 -1.75061e-17)
(8.36113 0.0909998 0)
(7.3745 0.125162 0)
(7.1848 -0.0742316 8.10286e-18)
(4.72449 -0.152254 3.74694e-17)
(8.42746 0.0295805 1.03298e-16)
(7.21402 -0.0619917 -8.22821e-17)
(7.10176 -0.136758 6.17155e-17)
(4.42076 -0.0182062 1.09444e-17)
(7.99856 -0.0558634 0)
(6.67782 0.0504462 6.42646e-17)
(6.91227 -0.143345 -1.0276e-16)
(7.7808 0.160243 -1.82902e-17)
(7.83062 -0.0101765 2.43906e-17)
(4.71692 -0.100643 0)
(8.13802 0.0526585 -4.46731e-17)
(7.12396 -0.0690315 2.9427e-17)
(7.01001 0.080138 -6.30115e-18)
(7.47072 -0.0446982 8.83661e-18)
(7.84237 -0.119331 5.81456e-17)
(7.42722 -0.0949387 -3.85624e-17)
(7.33528 0.0660116 5.71376e-17)
(7.2475 0.196368 3.76751e-17)
(7.67254 0.0659618 -1.11035e-17)
(7.51796 0.101932 0)
(5.6319 -0.138862 0)
(7.3218 -0.10485 -4.74264e-17)
(6.9253 -0.093465 -1.75268e-17)
(8.14788 0.104552 0)
(7.89314 -0.124618 0)
(8.09976 -0.118123 0)
(5.10538 0.0336248 0)
(7.68045 -0.0823529 5.16424e-17)
(5.2446 -0.0514165 0)
(7.12402 -0.132675 0)
(7.01533 0.0928505 2.83893e-17)
(6.55466 -0.0495022 -1.96523e-17)
(4.51633 -0.513574 -9.22568e-18)
(7.35673 0.000160001 0)
(7.61456 -0.0294057 0)
(7.26854 -0.105077 4.34995e-18)
(3.65946 -0.844 1.85237e-17)
(7.20749 -0.196138 0)
(7.90317 -0.247309 -1.96045e-17)
(4.53997 -0.106 -5.26497e-17)
(3.33121 -0.714079 0)
(7.12248 0.123276 -4.41152e-17)
(1.41081 -0.307748 0)
(6.99611 0.0139566 -7.6742e-17)
(7.00704 0.0128487 1.01695e-16)
(7.47418 0.0556249 1.96345e-18)
(3.37934 -0.55001 0)
(7.01164 0.036846 5.04534e-17)
(6.94223 0.0729199 1.12766e-16)
(7.66977 0.0173299 0)
(7.76483 0.0208078 -3.46122e-18)
(7.37003 -0.113434 -4.29583e-18)
(8.13794 -0.119277 0)
(3.80692 -0.642047 1.50608e-17)
(3.69396 0.03856 -3.76308e-17)
(7.12301 0.128704 -4.97646e-17)
(6.99315 -0.335586 0)
(7.41553 -0.214525 0)
(1.2359 -0.171029 6.91917e-17)
(7.26241 -0.0757187 2.90746e-18)
(7.15327 -0.110556 0)
(7.31677 -0.116341 -2.80862e-18)
(6.97364 0.10829 -2.85263e-17)
(7.16239 0.113664 0)
(7.14971 -0.218557 0)
(6.76952 -0.0859747 0)
(6.65788 -0.328052 4.10056e-17)
(7.00361 0.00601942 0)
(6.87141 -0.313476 2.59307e-17)
(7.33244 -0.164741 4.09611e-17)
(6.78351 0.192119 0)
(7.03985 -0.0270756 1.31663e-17)
(7.06399 -0.190209 -6.13578e-17)
(7.82001 -0.267794 4.36776e-18)
(7.9694 -0.0362746 1.50763e-17)
(6.88418 -0.220561 -4.2085e-18)
(6.98755 0.134147 0)
(6.77144 0.162328 1.33571e-17)
(6.94878 0.115797 -1.50467e-17)
(6.98048 -0.104802 4.09617e-17)
(8.15041 -0.118339 0)
(6.87019 -0.0833094 0)
(7.48136 -0.086861 0)
(7.64979 0.235903 0)
(7.35908 -0.106497 5.56992e-18)
(7.54542 -0.141837 -1.48249e-17)
(7.54631 -0.128144 3.10131e-17)
(7.40609 -0.111749 0)
(7.28816 -0.0233719 2.51606e-17)
(7.70542 0.136348 -1.8477e-17)
(7.75415 -0.23139 -9.51967e-18)
(7.99628 -0.186951 -1.03809e-17)
(8.022 -0.212284 1.02456e-18)
(7.7704 -0.180008 1.92871e-17)
(7.49111 0.174173 5.58521e-17)
(7.81256 0.116081 -4.7103e-17)
(7.74998 0.205677 5.15492e-17)
(7.64149 0.122837 0)
(4.29276 -0.127625 -2.42653e-17)
(3.93042 0.0119614 0)
(7.91969 -0.142774 -1.28924e-17)
(7.84015 -0.220274 2.19888e-17)
(7.90244 -0.162829 0)
(7.9443 -0.185562 -6.76572e-18)
(7.83114 -0.206179 0)
(7.88417 -0.121601 0)
(7.91839 -0.177638 0)
(7.87718 -0.152239 -2.26668e-17)
(7.04423 0.0191632 3.49702e-17)
(6.96232 -0.0560476 -3.54689e-17)
(7.55313 0.185419 -8.87016e-17)
(1.1167 -0.0670963 -1.15165e-16)
(1.0656 -0.00926115 1.17452e-20)
(4.93178 -0.075399 0)
(4.7263 -0.00668541 0)
(7.00793 0.0424743 -4.3848e-17)
(7.96608 0.20995 5.2918e-17)
(7.36025 0.0492018 -1.54016e-16)
(6.98027 0.104127 0)
(6.97339 0.0751319 0)
(6.85151 -0.0557871 -1.89686e-17)
(7.01601 -0.0572924 0)
(7.03216 -0.189044 7.76692e-18)
(6.83844 -0.272646 -6.85358e-17)
(5.17304 -0.0321603 7.25013e-17)
(7.07281 0.138592 -4.02101e-17)
(7.26687 -0.203061 -6.92765e-18)
(7.01006 -0.289387 -1.53859e-17)
(6.32292 -0.378453 -3.21874e-18)
(6.31859 -0.284779 3.9948e-17)
(6.4377 -0.2177 7.49267e-18)
(7.17461 -0.101209 8.74709e-18)
(7.28666 -0.128786 0)
(7.0652 -0.0227567 -6.68851e-17)
(6.9855 -0.000271297 3.95113e-17)
(7.31672 -0.241298 -3.95939e-18)
(6.98314 0.104135 3.09631e-17)
(7.39112 -0.170805 0)
(6.56556 -0.0826545 2.60626e-17)
(6.43076 -0.136138 -7.14807e-18)
(7.26082 0.161097 6.65294e-18)
(7.36211 0.128798 -2.5681e-18)
(7.03968 0.152531 0)
(6.84612 0.178823 0)
(7.37517 0.0546705 2.85759e-17)
(7.61662 -0.0176874 -9.73682e-18)
(7.4687 -0.129137 0)
(6.77497 0.028113 0)
(7.60063 -0.0355394 0)
(7.53136 0.0590276 3.58276e-17)
(7.16898 -0.011428 -3.67446e-17)
(7.37117 0.0697085 -1.02248e-16)
(6.58028 -0.305908 0)
(7.42786 -0.0728818 0)
(7.20165 -0.107701 0)
(7.33561 -0.0395154 0)
(7.86694 -0.118926 0)
(7.70939 -0.11821 0)
(7.89319 0.0664823 0)
(8.09716 -0.0793258 0)
(4.76674 -0.0770306 0)
(7.07442 -0.095459 0)
(4.00408 0.950532 -3.30032e-19)
(6.27081 2.45179 -6.41629e-19)
(3.91202 -0.0325451 1.59618e-18)
(6.61953 2.53731 0)
(2.76603 -1.54679 -1.65769e-20)
(2.68645 -1.52004 1.44061e-17)
(7.25405 -4.57956 6.97072e-18)
(6.79017 0.315232 0)
(6.70208 2.20499 0)
(4.16655 -0.894556 -2.11823e-17)
(2.62792 -1.59011 -1.51044e-20)
(4.20658 -0.733305 2.38333e-18)
(3.0364 -0.576781 0)
(2.62388 -5.33925 6.21688e-18)
(7.32867 -1.13367 0)
(5.41947 -4.50682 -7.62006e-20)
(4.07444 -0.770347 2.71323e-18)
(4.38813 -0.0935912 9.35717e-22)
(6.20718 -4.34622 -2.08578e-18)
(6.31362 -4.36322 -2.0568e-18)
(4.31366 0.109768 5.21669e-19)
(4.23715 0.120087 -6.52795e-19)
(6.72702 0.231521 -8.46151e-17)
(3.44274 -0.0363623 0)
(5.19876 -3.80291 -2.09447e-18)
(5.63003 -3.82366 0)
(1.39302 -0.758675 0)
(3.98822 0.705572 -1.48886e-18)
(5.66719 -4.26387 3.45448e-18)
(6.28999 -3.61157 -2.0219e-18)
(6.42115 1.83714 0)
(4.29822 -1.50596 2.2853e-18)
(4.01756 -0.466311 0)
(5.31106 -1.17721 3.99015e-18)
(6.6361 -2.27604 -1.45305e-17)
(6.51141 -3.84602 -4.09792e-18)
(6.38446 2.82563 2.36873e-20)
(6.34553 2.23833 1.98215e-18)
(6.32013 2.32578 -2.61376e-18)
(2.60676 -1.19036 0)
(2.65884 -1.39449 7.38064e-20)
(2.93433 -1.50604 -1.85909e-17)
(2.83635 -1.45281 -2.5608e-20)
(5.79488 -1.90356 -7.60308e-18)
(5.32725 -1.71657 6.51203e-18)
(6.34073 -1.5125 0)
(6.19693 2.41699 2.69313e-18)
(5.34523 -4.26693 -1.55643e-18)
(1.66497 0.704272 -6.80261e-17)
(6.14399 2.81849 0)
(3.97612 -1.33611 0)
(7.34207 -3.94968 1.58956e-17)
(6.51024 1.95226 2.45828e-18)
(6.55837 2.00036 5.78459e-19)
(3.95 -1.24149 0)
(6.47837 2.43459 -8.55449e-20)
(6.45021 2.44943 1.0511e-19)
(2.97646 -1.42091 9.36908e-18)
(3.90131 -2.01161 3.67202e-19)
(3.76139 -2.19446 2.96329e-18)
(3.92559 -1.0946 4.3067e-17)
(3.71322 -1.05552 0)
(3.05552 -0.714567 0)
(3.16579 -0.784368 5.12848e-19)
(5.47165 -4.05791 1.60997e-18)
(3.80875 -0.263525 0)
(4.41495 -0.610034 -5.77904e-19)
(6.90094 -0.426157 1.89386e-17)
(6.42114 2.4343 0)
(6.57934 0.191127 5.6859e-17)
(6.3243 2.1235 0)
(6.36531 2.17163 0)
(5.86014 -4.62978 0)
(0.966385 -0.478886 8.36531e-17)
(6.87245 0.309625 -8.18668e-17)
(2.88685 -0.399022 -9.89829e-18)
(4.37504 -0.307805 2.07809e-18)
(4.38377 -0.169576 -9.87241e-19)
(5.4025 -4.15571 -9.58756e-19)
(6.14001 -4.72092 -8.17654e-19)
(6.16369 -4.68867 -2.60234e-18)
(6.23439 2.32681 3.91107e-18)
(4.38094 -0.382978 -3.32413e-18)
(4.39972 -0.529718 1.21999e-18)
(5.7663 -4.16008 -1.60032e-18)
(6.37802 -3.18943 0)
(4.26361 -0.91694 0)
(4.32142 -0.851765 0)
(4.29032 -1.00535 0)
(3.0953 0.44035 -1.75124e-17)
(3.78629 -1.75297 9.21787e-18)
(4.15764 -1.35065 0)
(6.12664 0.105475 -1.69751e-17)
(6.28846 2.3149 -6.40864e-19)
(6.26078 2.25302 -2.27045e-18)
(6.30102 2.2588 -2.58739e-18)
(6.25083 2.30952 -4.98075e-18)
(2.91934 -1.65148 -2.08947e-17)
(5.15686 -4.09928 6.54474e-19)
(5.21811 -4.14999 -1.41694e-18)
(6.23049 -4.70719 4.0467e-18)
(6.43417 -4.0619 0)
(4.28201 -0.566019 2.2439e-18)
(7.24795 -3.45426 -4.9821e-18)
(7.34704 -3.74502 -1.07248e-18)
(6.91115 -2.98254 3.92433e-18)
(3.35277 0.115644 0)
(3.21471 0.352572 -1.74188e-17)
(3.1966 0.146664 0)
(6.30969 -4.80234 -1.48426e-18)
(6.43989 2.37434 1.14687e-19)
(3.01834 -1.91601 -1.39696e-17)
(2.94146 -1.72557 1.852e-17)
(3.05425 -1.73996 2.24081e-17)
(2.87524 -1.90738 6.52566e-18)
(6.36966 2.38376 1.22133e-18)
(6.41598 2.36436 -1.81116e-18)
(6.39961 2.34162 3.84066e-19)
(6.39451 2.39636 4.57521e-19)
(3.9654 0.765031 2.90474e-18)
(3.88548 0.890609 -1.68994e-18)
(6.81086 0.281517 -2.68523e-19)
(6.26552 -0.773234 -3.60395e-17)
(2.85459 -0.730345 -2.01414e-17)
(2.82987 -0.965859 0)
(7.22657 -3.45926 -5.96219e-18)
(7.5432 -0.461885 -4.08165e-17)
(2.81101 -1.33608 5.86043e-18)
(5.81103 -0.885785 -2.09424e-18)
(7.13271 -0.239574 7.87398e-18)
(2.8232 -0.586104 0)
(2.92429 -0.574492 1.90316e-17)
(2.89013 -0.503085 6.72183e-20)
(2.86572 -0.626261 -5.49374e-18)
(3.57215 -0.0823173 3.21324e-19)
(3.56872 -0.259532 0)
(3.36213 -0.017165 -6.85538e-18)
(6.48618 2.40923 0)
(6.46824 2.38745 0)
(6.51799 2.39417 2.15649e-19)
(3.27161 -0.448077 0)
(3.10607 -0.459424 3.30087e-17)
(3.05583 -0.112378 0)
(3.07185 -0.333438 -3.56787e-17)
(3.13221 -0.184874 0)
(3.38653 0.582079 -6.49141e-18)
(3.62598 0.272482 3.76725e-17)
(6.19624 0.156722 -6.13575e-17)
(6.71211 2.1111 -1.35736e-18)
(6.3177 2.35333 9.56849e-19)
(6.34602 2.37899 -2.0032e-18)
(6.71981 -0.643146 5.90248e-18)
(6.76524 -0.41286 0)
(1.14119 0.419235 0)
(2.65146 -0.542608 -8.32906e-18)
(7.02578 -3.57071 0)
(6.66115 -3.72992 -1.26619e-17)
(7.12991 -0.258825 -1.84544e-17)
(7.15296 -0.245238 1.4656e-17)
(7.09109 -0.295052 0)
(6.20776 2.46524 1.40517e-18)
(6.25791 2.52636 6.86051e-19)
(6.74827 -4.16016 4.76106e-19)
(6.16489 -4.74499 0)
(6.2498 -4.77353 1.96267e-18)
(6.13655 -4.76882 2.02275e-18)
(5.23689 0.220769 1.01312e-16)
(6.52237 -0.505579 -5.48132e-17)
(6.54248 -0.628547 0)
(6.6118 -0.428343 -2.39793e-17)
(5.95966 -4.06065 0)
(6.16985 -4.1496 4.31798e-18)
(6.05329 -4.19252 -1.20018e-20)
(6.04228 -4.07771 -4.00446e-18)
(4.20455 -0.36296 0)
(3.95952 -0.131239 -2.14443e-18)
(3.88236 -0.334897 -3.29225e-17)
(4.21827 -0.220065 0)
(6.29773 -4.21437 2.18598e-18)
(6.35165 -4.31894 2.45318e-19)
(6.42253 -4.17659 -1.51535e-18)
(4.09572 0.489376 2.37864e-18)
(4.04862 0.38265 0)
(6.17163 -3.69699 0)
(5.84732 -3.80507 -3.58315e-18)
(3.92102 0.410949 -5.39843e-19)
(3.62649 0.777616 -8.36444e-18)
(4.27632 -0.552828 -5.36057e-19)
(4.02634 -0.659451 1.81724e-17)
(4.17502 -0.682244 -1.15906e-17)
(4.19932 -0.449837 1.04909e-17)
(3.42164 -2.78939 -2.10096e-18)
(6.6777 0.251939 1.02731e-17)
(6.66631 0.222634 0)
(6.88079 0.140951 0)
(6.81435 0.17353 5.83049e-18)
(3.84837 1.1338 0)
(3.94152 1.02134 0)
(2.86888 -0.189552 -2.36503e-17)
(2.85909 -0.0725462 1.49893e-20)
(2.78396 -0.215026 1.08964e-17)
(3.35617 -1.25383 0)
(6.31778 -1.3854 0)
(3.62199 1.54208 -1.03767e-19)
(3.78731 1.4315 -2.12121e-18)
(3.82905 0.954223 -1.64328e-18)
(5.05073 -3.83071 0)
(3.12968 -1.18691 9.22265e-18)
(3.2111 -1.05532 1.81387e-17)
(2.99607 -1.14505 0)
(3.53965 -0.516344 0)
(3.7904 -0.346719 4.26338e-17)
(3.62407 -0.311451 -5.2351e-18)
(3.76715 -0.51167 -3.10278e-17)
(3.08233 -1.45011 1.81845e-17)
(3.24664 -1.33688 0)
(3.15008 -1.28692 -1.91101e-17)
(3.2107 -1.46257 0)
(7.64313 -0.403735 1.45347e-17)
(3.65903 -1.41387 0)
(3.45684 -1.28066 0)
(3.62909 -1.2184 0)
(3.46646 -1.43442 1.52154e-17)
(7.01415 -2.76358 0)
(7.21467 -2.59454 -8.45994e-18)
(4.17913 -1.14692 -6.81051e-19)
(4.27504 -1.05898 0)
(4.27038 -1.14494 6.16504e-19)
(4.18763 -1.07077 0)
(6.90915 0.0735198 3.57456e-19)
(6.87438 0.00688742 0)
(6.52019 0.31119 3.35899e-17)
(6.69346 -4.08457 2.00014e-19)
(6.58236 -3.92012 3.73186e-18)
(6.75491 -3.98454 3.48583e-18)
(6.53361 -4.03375 4.11287e-18)
(6.8361 2.0852 0)
(7.25034 0.450742 -2.63745e-17)
(4.48937 -1.55355 1.90014e-17)
(4.58149 -1.26289 -3.48914e-17)
(7.02256 -0.34684 1.56284e-17)
(7.11197 -0.276415 -1.09047e-18)
(7.0388 -0.323146 -1.02662e-17)
(6.84128 1.37232 2.80444e-18)
(3.88481 -0.183737 -3.58373e-17)
(2.07128 -0.189682 0)
(6.09425 -0.497094 -2.34882e-17)
(6.21546 -0.482953 5.38635e-18)
(6.38762 2.89676 -1.53501e-19)
(5.96366 -4.30419 0)
(6.03726 -4.24918 1.98172e-20)
(6.10513 -4.2967 2.40051e-18)
(5.92578 -4.22069 2.16617e-18)
(4.26123 -1.24017 0)
(4.48223 -0.929919 -6.02245e-18)
(4.2894 -0.97813 0)
(4.48653 -1.17207 3.83536e-17)
(6.90464 0.113067 0)
(6.91422 0.0769179 1.4135e-17)
(6.90282 0.0946126 0)
(7.00319 0.0732746 5.29638e-19)
(6.99991 0.0923949 -1.786e-17)
(7.58124 -0.181666 0)
(7.24845 -0.222806 -4.34659e-18)
(7.38311 -0.223503 4.7049e-18)
(7.42364 -0.179066 0)
(6.64145 0.177699 0)
(6.75464 0.0868327 -7.0947e-17)
(6.72135 0.158856 5.1042e-18)
(6.65706 0.127938 4.38268e-17)
(5.64741 -4.22202 -3.69445e-18)
(5.56185 -4.10829 0)
(5.51569 -4.17985 0)
(5.69049 -4.1637 0)
(6.23292 2.40438 1.42458e-18)
(6.2633 2.42738 -7.76862e-19)
(6.25264 2.36766 1.17346e-18)
(2.82576 -1.04578 0)
(2.73305 -1.14798 7.12714e-18)
(2.7406 -1.06759 -7.50598e-18)
(2.83093 -1.14459 -5.75834e-18)
(6.51548 0.204614 -9.437e-18)
(6.39543 0.232995 3.66843e-18)
(6.46418 0.176914 9.42984e-17)
(2.03101 -0.270479 -2.58216e-17)
(2.08681 -0.0147359 2.37721e-17)
(6.94201 0.148327 0)
(2.11939 -0.191804 -9.90209e-19)
(5.38995 0.0955147 -1.21504e-16)
(6.9957 0.021018 5.10009e-17)
(7.01974 0.0765097 2.18521e-17)
(1.90911 -0.950208 -8.58333e-18)
(2.12372 -1.00689 1.54038e-17)
(7.01109 0.117571 6.34891e-17)
(7.01009 0.0851145 6.8909e-17)
(7.0087 0.0922511 -2.26932e-17)
(6.95713 0.204484 8.84855e-17)
(6.88294 -2.26115 1.58987e-17)
(7.00177 0.244581 0)
(5.96574 -0.0846405 1.5878e-17)
(1.35306 -0.229657 -1.12557e-20)
(1.81699 -0.285452 0)
(6.77697 0.233473 -5.92507e-17)
(4.03513 -1.18416 0)
(7.44362 0.0187315 -4.48419e-17)
(6.99904 0.144382 4.72133e-17)
(6.81801 -0.0141077 0)
(7.89939 -0.408647 0)
(7.33844 0.343421 0)
(7.32331 0.417496 2.97396e-17)
(1.58808 0.468077 2.29237e-17)
(7.75342 -0.290353 7.84037e-17)
(7.69607 -0.352064 0)
(7.13839 0.17862 -3.20909e-18)
(6.85001 0.279156 0)
(7.29695 -2.6185 8.54006e-18)
(6.00963 -0.0708388 1.31084e-17)
(7.19051 -0.163987 -1.89558e-18)
(7.13446 -0.211383 2.31567e-18)
(7.17447 -0.190925 3.72748e-19)
(7.58772 -0.233729 0)
(6.67342 -0.462163 -5.97507e-18)
(6.6531 -0.580971 8.25073e-18)
(8.11305 -0.225034 3.70506e-17)
(8.16479 -0.138945 -3.76667e-17)
(8.08261 -0.132908 8.16866e-17)
(6.94411 -0.115321 2.46214e-18)
(6.83937 -0.0910843 2.57888e-18)
(6.97457 0.181399 2.62549e-17)
(6.96984 0.155633 2.5771e-17)
(7.00054 0.0233703 2.80894e-17)
(7.003 0.0370854 6.08457e-17)
(6.42957 -0.388516 0)
(2.94524 0.44164 0)
(6.82125 -0.464621 0)
(6.80189 -0.58913 0)
(7.16277 -0.16071 2.99883e-20)
(6.98221 0.258358 -2.71328e-17)
(6.21792 -0.0805454 -7.80077e-18)
(7.00264 0.172241 -4.83627e-17)
(6.992 0.212598 0)
(6.99136 0.194026 1.03246e-18)
(2.10274 0.319572 0)
(6.93621 0.115433 -1.38575e-17)
(6.94605 0.104264 1.36874e-17)
(7.34938 -3.52377 7.2614e-18)
(7.12058 -3.05408 0)
(7.1415 -2.9189 3.08875e-18)
(7.42552 -0.379993 -6.95245e-17)
(7.18369 -0.0534965 0)
(8.29262 -0.0205707 0)
(6.57134 -0.057639 -2.67013e-18)
(6.52403 -0.0493209 -1.94843e-17)
(6.83738 -0.0537697 2.73799e-17)
(4.62483 -0.27731 6.44265e-17)
(4.83743 -0.276277 0)
(7.52938 -0.398898 -8.01029e-17)
(7.47098 -0.372129 6.31188e-17)
(8.07037 0.0372379 -3.24326e-17)
(8.18632 -0.120497 0)
(6.0186 -0.177311 0)
(7.08656 -0.00370643 0)
(7.17822 0.39453 9.2822e-18)
(7.15694 0.343728 0)
(8.08843 -0.136677 0)
(8.29118 -0.101442 -2.24944e-17)
(1.73909 0.557832 0)
(7.13842 -0.243711 -1.1505e-18)
(7.27312 0.00914025 0)
(4.59373 -0.756206 -3.10327e-17)
(7.22272 0.124006 -3.80628e-19)
(7.23258 0.0817311 1.10666e-17)
(1.03638 -0.0876448 -7.95949e-17)
(3.70853 0.419238 1.54388e-17)
(3.55693 0.60314 -9.62933e-18)
(6.79685 0.211356 5.23239e-17)
(6.99729 0.0540984 -2.60514e-17)
(6.99246 0.0726368 -2.73232e-17)
(4.80244 -0.8636 -3.42739e-17)
(6.45577 2.01552 -2.24055e-18)
(6.15245 -0.00528721 -3.53383e-17)
(6.02554 -0.0608158 0)
(2.69069 -1.21173 1.25452e-17)
(2.71769 -1.30855 -1.27143e-17)
(6.66293 0.0729724 -4.39968e-19)
(6.55494 -0.0103455 7.43611e-17)
(6.65385 0.00487769 0)
(6.99943 0.09386 5.61612e-17)
(7.00243 0.126334 1.96455e-18)
(2.32515 0.607874 0)
(6.96408 0.249173 -5.62506e-17)
(6.60633 0.237481 -5.55607e-17)
(6.57306 0.30865 -3.31817e-17)
(6.86415 0.233365 1.02626e-16)
(6.90243 0.234613 -7.38733e-17)
(6.91968 0.198683 -2.97821e-17)
(7.30069 0.0562955 -5.58976e-17)
(6.27196 -0.0312758 2.40745e-17)
(6.38884 0.0325038 -5.93264e-17)
(6.17106 -0.196688 -1.3673e-17)
(6.28711 -0.112595 -8.37751e-17)
(7.52005 0.00852005 0)
(7.66993 0.0752049 -2.48062e-18)
(7.17864 -0.141834 -1.91361e-17)
(7.87582 -0.00213377 4.83573e-17)
(6.54717 2.08512 1.47412e-18)
(6.98077 0.138358 4.44275e-18)
(7.0728 -0.320164 0)
(7.10817 -0.27094 5.50081e-18)
(3.86536 -0.329009 0)
(4.14945 -0.362429 7.68546e-17)
(7.46845 0.189889 -4.92164e-17)
(7.82384 0.157902 -2.08988e-17)
(7.52385 0.119285 -7.39624e-18)
(7.43792 0.14183 5.38396e-18)
(5.65481 -0.141193 0)
(5.45736 -0.176359 0)
(3.42842 -1.52954 -2.11501e-17)
(3.22912 -1.54146 0)
(3.15035 -1.70989 -1.79268e-17)
(2.79151 -1.66986 -1.5714e-17)
(7.01659 0.0540379 -8.29623e-18)
(6.73237 0.198171 0)
(6.81245 0.186944 0)
(7.53519 0.0243014 0)
(7.86755 0.0297922 -6.40456e-17)
(4.04458 0.210374 -2.86653e-17)
(4.23852 0.164862 2.42159e-17)
(8.35378 0.0868985 -1.53362e-17)
(8.22108 0.152855 -1.88132e-16)
(8.077 0.0481269 -6.99348e-17)
(7.14425 0.0780736 0)
(7.70611 0.235116 0)
(7.03537 0.0750212 0)
(7.42238 -0.0553885 0)
(7.03157 0.183878 -4.73389e-16)
(4.91272 0.030084 5.33191e-16)
(7.46358 0.171419 8.8785e-17)
(7.29409 -4.29641 0)
(7.35285 -4.09411 0)
(6.9883 0.0252941 -2.67689e-17)
(6.95213 0.0471123 -6.22883e-17)
(7.02183 0.0419857 2.05184e-17)
(6.93688 0.0611068 9.07e-17)
(7.92004 -0.260346 6.33963e-17)
(4.99782 -0.0549559 -4.52216e-17)
(5.16443 -0.118796 -5.79121e-17)
(5.33252 -0.0288823 9.08878e-17)
(6.89407 0.122967 0)
(6.88213 0.146079 0)
(6.85242 0.180636 0)
(6.87374 0.172358 -3.03242e-17)
(6.83202 0.213402 0)
(7.00123 0.0626238 4.18055e-17)
(7.32066 -0.0801176 5.5765e-17)
(7.03425 -0.135938 -4.74651e-17)
(7.59376 -0.366711 1.08179e-16)
(7.68278 -0.299729 -7.20203e-17)
(7.65969 -0.279599 -6.62965e-17)
(7.6356 -0.2648 0)
(7.46826 -0.280518 2.51987e-17)
(7.54178 -0.305325 -2.51259e-17)
(4.78368 -0.0795498 -2.0612e-17)
(6.92678 -0.0371065 -6.68908e-18)
(7.83933 -0.232143 2.31988e-17)
(4.97823 -0.430765 0)
(5.15301 -0.375481 -2.57597e-17)
(5.35763 -0.380046 -4.44415e-17)
(2.90386 0.396769 1.04149e-17)
(2.92863 0.449746 9.09197e-18)
(6.39573 0.0927102 2.92807e-17)
(6.30195 0.121856 0)
(3.43775 -0.882524 -3.19561e-18)
(3.35289 -1.04964 0)
(7.69722 -0.0994892 -1.09632e-17)
(7.85192 0.0318227 0)
(7.77833 0.111523 2.27435e-18)
(3.58151 0.818644 4.1279e-18)
(3.52102 0.800928 4.29817e-20)
(5.3869 -3.21833 3.40341e-19)
(5.40087 -3.31155 -3.11405e-19)
(2.59869 -0.904108 0)
(3.76672 1.82555 -1.32239e-18)
(7.78169 0.317176 -6.49886e-20)
(5.85388 1.30059 0)
(6.43053 1.15515 9.25179e-20)
(6.11888 1.13749 -2.64783e-19)
(2.49512 0.430098 0)
(5.82436 -1.96826 -2.56397e-19)
(9.35578 1.12637 -1.00642e-18)
(7.8741 0.537404 2.76819e-19)
(8.81152 -0.23959 2.25149e-18)
(6.51363 3.2601 -8.12865e-20)
(2.60863 0.451251 4.20549e-18)
(5.01228 -4.26993 7.56098e-19)
(6.63082 -5.0619 0)
(3.90956 -0.71672 0)
(9.29231 1.11488 0)
(4.96913 -4.18146 0)
(5.00547 -4.20477 0)
(6.042 2.12304 6.00172e-20)
(6.04511 2.13879 0)
(6.34298 0.89807 1.7128e-19)
(7.00702 0.998996 1.50168e-20)
(7.00524 1.03779 -1.68502e-20)
(5.88082 1.23748 1.75691e-19)
(7.05482 -0.875104 1.02584e-19)
(7.07768 -0.962533 4.79483e-20)
(5.40351 -4.54432 7.47736e-19)
(6.15388 1.12283 -1.5052e-20)
(6.21392 1.08459 0)
(7.45795 1.14215 1.55586e-19)
(7.34591 0.906855 -7.59283e-21)
(7.35098 0.940017 -2.09593e-19)
(7.05855 1.03644 0)
(6.20676 -1.77729 0)
(6.20541 -1.71747 3.55256e-21)
(3.87564 -2.32457 1.69022e-18)
(6.30268 1.24954 1.24942e-19)
(6.29524 1.2249 -3.25537e-20)
(4.91256 -3.81416 0)
(1.5305 -2.04855 3.45494e-17)
(3.64729 1.67189 9.13722e-19)
(3.70942 1.71189 -1.42775e-20)
(2.51768 0.0251972 4.46759e-18)
(3.57772 -1.58006 -1.91226e-17)
(5.99474 2.55599 5.49908e-19)
(8.53759 0.880384 3.78072e-19)
(6.18547 -4.86059 -1.59698e-19)
(2.3162 -0.945471 -1.59952e-18)
(6.61347 2.2608 0)
(6.71882 2.4623 -2.88367e-20)
(5.92211 -2.13192 1.12979e-19)
(3.11071 1.24359 -1.53356e-20)
(6.63573 -5.00106 -2.60881e-19)
(6.65801 -4.99143 6.87605e-19)
(5.88787 -1.17676 0)
(6.84317 -1.09343 0)
(6.62582 -1.32037 -8.78749e-20)
(6.91317 2.89918 -2.22648e-19)
(7.11872 0.785996 -7.96486e-20)
(6.91029 -1.21884 6.40775e-21)
(6.27074 2.29088 0)
(4.90832 1.09119 0)
(8.25961 0.355917 0)
(5.85343 -2.10753 -7.31111e-20)
(3.03458 -3.42426 -2.38129e-20)
(3.19248 -3.23572 1.17644e-18)
(6.83953 -0.835479 0)
(6.85471 -0.944589 8.29644e-18)
(5.83312 -4.70526 -7.22036e-19)
(6.86701 2.70682 -1.02101e-19)
(3.54001 -1.86664 1.07869e-18)
(7.7671 0.831674 -4.80197e-19)
(5.39087 -4.58489 0)
(6.45525 3.30406 0)
(6.39236 3.26568 -3.05516e-20)
(6.04223 2.60635 0)
(4.83028 -3.12455 -4.2313e-18)
(6.55714 3.69378 0)
(6.69348 2.78334 3.15596e-20)
(6.54381 1.19382 0)
(4.11687 0.990438 5.97467e-19)
(4.09752 0.944339 2.93415e-19)
(6.03349 0.965734 4.89238e-19)
(7.68064 0.871645 0)
(7.67099 0.913295 0)
(7.75318 0.876869 4.73683e-19)
(5.3739 -2.62473 8.64427e-18)
(6.84925 1.23924 4.3705e-21)
(7.9971 -0.363297 0)
(7.97807 -0.280287 -9.7437e-20)
(2.28685 -1.98279 5.46973e-18)
(6.75682 1.03981 -2.19629e-20)
(6.78065 1.062 0)
(2.67396 -0.136988 6.55857e-18)
(2.73759 0.0282991 0)
(8.26073 -0.102446 -7.63234e-19)
(8.25321 -0.0501 -5.04964e-19)
(6.20182 3.30482 -7.80797e-21)
(6.76706 -5.01881 3.10051e-18)
(4.10966 -0.840143 1.4537e-18)
(6.75564 2.35872 5.11483e-21)
(6.70816 2.66583 -1.17167e-19)
(6.31183 2.44125 1.90596e-18)
(7.54047 -0.569865 -8.15299e-21)
(2.62201 -4.40733 6.61316e-18)
(6.92651 1.0561 3.03355e-21)
(6.92326 1.02484 -1.46663e-21)
(7.55994 3.18867 3.72022e-19)
(6.83691 -1.23326 0)
(6.6831 -1.28188 5.23383e-20)
(5.19596 -4.53519 1.08727e-18)
(1.61924 -1.38296 -6.81072e-18)
(4.09323 1.46862 2.37007e-18)
(8.03149 -0.672131 8.49392e-19)
(5.63813 -2.53294 -1.65486e-19)
(5.64448 -2.60913 4.13638e-19)
(3.86997 1.54876 -1.01423e-18)
(3.77005 1.67558 -1.3554e-18)
(6.94386 -1.15661 -5.7042e-21)
(6.927 -1.10593 4.38317e-20)
(6.84186 -3.68053 0)
(7.6118 -4.7989 0)
(7.41066 -0.483584 2.25925e-19)
(7.91849 -0.272009 7.60275e-19)
(8.06085 1.01754 0)
(3.4832 0.88106 -3.96072e-18)
(7.29486 1.09838 0)
(7.28498 -2.85238 7.55621e-19)
(2.01609 -1.76594 2.44146e-17)
(7.23406 -3.98519 0)
(6.42236 2.25596 -7.72904e-20)
(4.96515 -4.23337 -2.80726e-19)
(4.97305 -4.25347 1.18021e-18)
(6.17833 2.3402 0)
(6.21544 2.33222 -4.47495e-19)
(6.73772 2.26378 0)
(4.73737 0.14445 0)
(6.27847 0.854941 -1.02615e-19)
(8.80549 -2.57674 1.44275e-18)
(5.38712 -2.2598 0)
(6.11187 -2.66404 0)
(6.47883 1.03938 -1.01556e-19)
(6.90631 -4.62804 4.98811e-20)
(6.64998 -0.913782 2.02511e-17)
(6.53141 -0.827816 1.46708e-21)
(7.37307 -5.32022 -2.25289e-18)
(7.46679 -5.32184 0)
(5.9643 1.46823 0)
(2.14386 -4.04131 1.03074e-17)
(3.04963 0.541213 -2.05705e-18)
(6.71244 3.40669 1.96162e-19)
(6.02485 -1.73315 8.42982e-20)
(6.06562 3.14344 0)
(4.07633 1.33379 8.81845e-19)
(4.17766 1.27354 1.65373e-18)
(6.91973 -0.427554 -2.32245e-19)
(5.78598 1.32038 3.26057e-19)
(6.5845 -1.09445 -5.51754e-21)
(6.58382 -1.16893 7.06652e-20)
(7.62603 1.17574 -1.87228e-19)
(6.37511 0.862378 -1.85095e-19)
(6.77036 0.983107 0)
(6.85475 0.967067 2.02188e-20)
(5.34505 -3.35888 0)
(5.23162 -3.43788 0)
(4.16427 -0.667139 0)
(2.6612 0.564786 -3.44212e-18)
(2.62303 0.529163 0)
(2.63366 0.675266 0)
(7.16572 0.00453924 8.16225e-20)
(6.84108 2.67051 3.39607e-20)
(7.56644 3.24162 2.13049e-19)
(4.44795 -1.51632 0)
(4.37775 -1.54304 5.8323e-19)
(4.94525 1.07161 0)
(6.58613 2.2894 9.14475e-21)
(4.05722 1.68543 0)
(2.52029 -0.900186 4.54402e-18)
(4.94131 0.197557 1.883e-18)
(4.99506 0.194695 -8.11432e-20)
(7.75435 0.712114 -4.52999e-19)
(6.80235 0.646825 8.43186e-18)
(6.61762 2.75258 1.43125e-19)
(4.71128 0.272684 0)
(4.74934 0.218515 0)
(7.44158 1.53862 -3.62497e-20)
(6.53092 2.28521 0)
(6.32984 -4.9159 0)
(6.09691 -0.104684 -6.21689e-21)
(6.50224 -4.99243 -8.41529e-19)
(6.18296 1.20227 -1.27064e-19)
(6.17124 1.17579 1.92643e-19)
(3.88632 -0.637298 -8.84874e-19)
(6.248 -1.15718 3.11121e-20)
(6.44825 -4.6789 -3.47936e-19)
(6.59493 2.21774 3.03467e-20)
(6.42688 -4.92566 4.56515e-19)
(6.92404 0.634557 -3.28621e-21)
(6.86494 0.64181 -3.12804e-20)
(3.94671 1.64801 -1.91181e-18)
(4.555 0.947003 0)
(4.53464 0.991421 3.99304e-21)
(5.26478 -4.83636 5.45788e-19)
(6.48229 0.383905 0)
(6.40754 2.15644 1.87784e-19)
(5.45794 -4.57204 0)
(5.45172 -4.59092 7.70901e-19)
(4.40974 0.710368 -2.49572e-19)
(6.6254 1.08047 0)
(6.70051 1.08533 0)
(6.53655 2.16132 2.01312e-20)
(6.69951 2.27182 1.12852e-20)
(6.74599 2.30873 -1.271e-21)
(5.18106 -5.40635 -2.99367e-19)
(7.95621 0.63444 -3.59863e-19)
(8.04027 0.622188 0)
(8.74091 -2.61596 2.91311e-18)
(6.78817 -1.19798 -6.5527e-20)
(6.79292 -1.12748 -2.95073e-20)
(6.69716 -1.22491 1.43205e-19)
(5.80303 0.820848 7.93321e-20)
(5.80533 0.869686 0)
(6.03847 0.682919 0)
(6.01847 0.646789 0)
(7.11971 -0.436482 0)
(7.16923 -0.415708 0)
(8.40231 1.06399 5.66941e-19)
(5.6874 3.34954 1.6941e-19)
(6.79736 2.90205 1.97423e-19)
(6.84578 2.88329 0)
(7.2678 -4.72804 4.73557e-18)
(5.86026 0.0913238 0)
(7.3383 -4.666 0)
(4.64261 0.63247 7.97293e-19)
(6.34713 -4.91691 -5.03909e-19)
(6.24075 -4.87179 1.03534e-18)
(7.24558 -4.37457 2.93472e-19)
(5.88532 -1.36373 2.86958e-19)
(6.73326 -5.20956 0)
(6.50374 2.18512 4.46452e-20)
(6.45913 2.1506 0)
(7.83455 -1.58255 -4.74767e-19)
(7.84264 -0.937065 -7.98311e-19)
(6.8332 1.11332 1.16693e-20)
(4.66362 0.0193951 0)
(6.6546 -4.51298 5.8802e-19)
(5.8483 2.7197 0)
(5.77952 2.70702 2.44542e-18)
(6.32198 -4.91575 -1.19222e-19)
(4.83345 0.471762 1.38179e-18)
(8.09117 1.08698 0)
(1.6861 -1.73695 0)
(6.48874 1.66091 0)
(6.40824 1.7572 0)
(5.94988 -1.35758 4.27391e-19)
(6.54514 1.23291 3.00065e-20)
(6.4735 1.23559 -1.06544e-20)
(6.55755 2.54688 8.54302e-20)
(6.52131 2.57158 -1.71434e-20)
(6.62666 0.814061 0)
(6.16039 2.39695 -2.79322e-18)
(8.75087 0.655683 0)
(8.63366 0.656743 1.48529e-18)
(6.05584 1.18127 0)
(6.1405 2.89581 0)
(6.17628 3.03143 3.42306e-20)
(6.53945 -0.678523 3.01206e-20)
(6.6257 3.01582 -8.97398e-20)
(6.60717 3.15589 0)
(6.21041 -0.99621 -2.01327e-19)
(7.64055 -0.702803 2.07983e-19)
(7.77717 -0.616445 5.75562e-19)
(5.96029 2.16326 -2.24132e-19)
(6.0184 2.1485 0)
(7.43342 0.891547 -7.68575e-21)
(8.33117 0.892541 -3.45083e-20)
(8.33941 0.953183 3.20648e-20)
(6.09986 -1.26452 -2.7512e-19)
(6.03676 -1.37817 0)
(2.06676 -1.10985 0)
(5.14489 -4.33087 -9.01879e-19)
(5.0538 -4.3203 1.07205e-18)
(6.50827 -1.40143 -2.11327e-20)
(2.87036 0.504384 0)
(6.85649 2.74867 -8.01009e-21)
(6.82205 2.75887 8.85327e-20)
(4.91541 -4.27261 0)
(4.6656 -4.06851 -2.54945e-18)
(6.17977 -1.24545 -2.18988e-20)
(6.20343 -1.16608 8.61064e-20)
(6.12315 -1.2286 2.4519e-19)
(4.17569 0.595474 2.46695e-18)
(4.0629 0.680711 1.42597e-18)
(6.4812 -4.92057 1.61885e-18)
(7.48161 0.60036 2.402e-19)
(6.64169 0.748329 -6.33022e-21)
(6.27503 -4.87731 0)
(6.25208 -4.86327 0)
(6.33287 -4.90267 0)
(3.23458 -3.06181 1.01886e-18)
(3.3022 -3.12943 2.86005e-18)
(4.38202 -1.07419 0)
(6.19168 -0.783234 -8.00722e-20)
(8.81197 0.0395049 -2.55279e-19)
(8.84067 0.00342705 0)
(5.84937 -0.645161 -3.23627e-19)
(5.85611 -0.714067 2.09413e-19)
(6.72703 -5.03173 -2.07742e-18)
(6.6938 -5.00956 1.80107e-18)
(6.73524 -5.06132 0)
(4.32306 1.09563 1.01112e-18)
(4.27907 1.18703 7.75974e-19)
(3.00469 -2.73952 0)
(6.47923 -4.97951 -1.06559e-18)
(6.83611 3.09101 -4.47302e-20)
(5.97656 2.27433 4.12391e-18)
(5.21986 -4.47273 8.32859e-19)
(5.22491 -4.50058 0)
(2.59396 -3.25241 -8.36825e-18)
(8.08331 -0.465359 8.6233e-19)
(7.84494 0.315636 6.20843e-19)
(7.96977 0.279965 1.89627e-19)
(6.2332 1.13787 -2.83271e-19)
(2.55678 -0.111231 -6.47451e-18)
(6.25972 3.1091 0)
(6.35267 3.11124 0)
(6.69692 -0.739238 -1.10265e-17)
(6.75521 -0.839133 0)
(6.64778 -3.60695 0)
(8.13138 -0.178919 -8.30828e-19)
(8.10929 -0.109356 1.23334e-18)
(7.78224 -0.852301 0)
(7.71077 -0.817198 -2.76679e-19)