/*--------------------------------*- C++ -*----------------------------------*\
  =========                 |
  \\      /  F ield         | OpenFOAM: The Open Source CFD Toolbox
   \\    /   O peration     | Website:  https://openfoam.org
    \\  /    A nd           | Version:  6
     \\/     M anipulation  |
\*---------------------------------------------------------------------------*/
FoamFile
{
    version     2.0;
    format      ascii;
    class       volScalarField;
    location    "500";
    object      nut;
}
// * * * * * * * * * * * * * * * * * * * * * * * * * * * * * * * * * * * * * //

dimensions      [0 2 -1 0 0 0 0];

internalField   nonuniform List<scalar> 
29874
(
0.251742
0.207455
0.121576
0.155394
0.178606
0.241648
0.217444
0.141058
0.152906
0.141856
0.268349
0.258227
0.182345
0.26303
0.266437
0.283655
0.175632
0.277318
0.118827
0.141929
0.14066
0.143786
0.140552
0.15339
0.144472
0.176868
0.219719
0.14383
0.233582
0.23398
0.229468
0.195473
0.194738
0.220619
0.151509
0.157991
0.142262
0.16289
0.164043
0.20031
0.139912
0.139659
0.14519
0.133085
0.191235
0.160678
0.17818
0.244958
0.239129
0.239874
0.194109
0.291445
0.267869
0.27931
0.199531
0.192902
0.134879
0.169829
0.166094
0.172037
0.163757
0.149107
0.14748
0.167405
0.123467
0.189811
0.238362
0.176374
0.262063
0.283357
0.154933
0.148353
0.144378
0.109378
0.285269
0.230379
0.231915
0.226253
0.182916
0.164744
0.192408
0.111117
0.138388
0.146593
0.0951441
0.109294
0.148774
0.140867
0.18799
0.163173
0.0698188
0.139524
0.138687
0.144936
0.133719
0.138285
0.135733
0.0980359
0.06094
0.105567
0.150859
0.138587
0.138852
0.167709
0.211648
0.0629275
0.0751915
0.154491
0.158758
0.144117
0.0744309
0.195775
0.205158
0.138594
0.138589
0.138837
0.134721
0.150723
0.000187028
0.142259
0.139819
0.178263
0.129378
0.115237
0.135801
0.138661
0.153106
0.146944
0.142097
0.135057
0.140011
0.137086
0.150501
0.143226
0.143581
0.143293
0.146261
0.134567
0.143752
0.233529
0.200092
0.171503
0.278282
0.16953
0.149488
0.152044
0.170735
0.182886
0.139762
0.276767
0.24676
0.240753
0.294769
0.121903
0.135253
0.140127
0.150265
0.161923
0.183623
0.18515
0.16689
0.181086
0.222218
0.162948
0.215839
0.189951
0.17178
0.150245
0.149377
0.154337
0.193878
0.172916
0.164422
0.0920494
0.0804986
0.154915
0.147999
0.000346614
0.147854
0.145074
0.000248768
0.000226843
0.160513
0.143124
0.141025
0.158721
0.138345
0.138701
0.140688
0.13867
0.138553
0.190278
0.144945
0.139471
0.170633
0.143288
0.14189
0.154902
0.000506117
0.000556862
0.152163
0.150635
0.176736
0.163722
0.141049
0.13898
0.14064
0.216564
0.14672
0.140016
0.142449
0.145686
0.133873
0.141725
0.142943
0.146102
0.145529
0.14227
0.146091
0.152854
0.235809
0.197255
0.197851
0.162357
0.139723
0.145995
0.151418
0.149336
0.161348
0.139131
0.13999
0.140027
0.137203
0.130145
0.144555
0.146588
0.135333
0.170574
0.159159
0.195876
0.198587
0.00651414
0.0415521
0.101565
0.107548
0.0376439
0.0355025
0.082714
0.131794
0.0784929
0.0820381
0.127066
0.0868266
0.0661549
0.102497
0.0510786
0.067034
0.000461265
0.0768562
0.075971
0.0614209
0.0673239
0.0668077
0.0746898
0.0801915
0.078413
0.0813062
0.115495
0.111888
0.000306207
0.0426437
0.040289
0.100408
0.0876579
0.108731
0.0791461
0.0453877
0.000836354
0.103697
0.10004
0.0980801
0.126707
0.126553
0.121999
0.121724
0.121148
0.125294
0.125439
0.0519639
0.0555318
0.083985
0.0875268
0.0889876
0.0792029
0.0829948
0.0749525
0.0766959
0.0545594
0.0933344
0.0930156
0.100259
0.0495014
0.117368
0.0505101
0.0907831
0.088336
0.0454009
0.127582
0.0493093
0.0068845
0.0785664
0.0790411
0.0493341
0.052702
0.0458195
0.0721483
0.0721415
0.0927722
0.114153
0.111941
0.0806887
0.0906643
0.0405375
0.0453547
0.110429
0.10832
0.111107
0.138252
0.0760339
0.0753306
0.136164
0.136568
0.0683152
0.0641088
0.0824763
0.0662414
0.11133
0.112822
0.112966
0.111335
0.0409483
0.0411673
0.0435952
0.0475394
0.0457124
0.045421
0.116376
0.116446
0.085717
0.0897525
0.128318
0.124388
0.0781697
0.079048
0.0816055
0.104651
0.0525475
0.0529354
0.108153
0.000280139
0.0772158
0.0278999
0.0799298
0.0448845
0.043835
0.0874464
0.0883582
0.0859252
0.132387
0.060237
0.0557649
0.0593412
0.0560295
0.139581
0.131005
0.0624212
0.0701883
0.0683897
0.0625484
0.0723244
0.0392929
0.0393548
0.120469
0.131264
0.110452
0.110404
0.114723
0.113621
0.115205
0.112398
0.0852177
0.0853115
0.0378162
0.0801999
0.0805359
0.0823601
0.0804856
0.0830666
0.0793321
0.138141
0.0796471
0.081852
0.0817558
0.126789
0.122624
0.130456
0.047284
0.0502281
0.0472681
0.0497952
0.0893943
0.081822
0.0850833
0.0867903
0.136886
0.0298728
0.0376605
0.0414031
0.0376336
0.0452781
0.0449244
0.0423397
0.0813549
0.0694548
0.086148
0.0825648
0.0807572
0.0883859
0.0988279
0.0985443
0.073309
0.0736617
0.0765147
0.0704317
0.0611914
0.0734711
0.0676406
0.0537533
0.0658275
0.068707
0.0765326
0.0706494
0.0734997
0.0519912
0.0486213
0.139431
0.140223
0.138133
0.136833
0.140612
0.0517006
0.0549305
0.0489352
0.0791378
0.0897672
0.0841368
0.0721424
0.0734974
0.075637
0.0704451
0.0839423
0.0818423
0.0832106
0.0818154
0.0684652
0.0678827
0.0664846
0.0765464
0.150952
0.143947
0.147562
0.148079
0.0644083
0.113595
0.104728
0.103654
0.10714
0.0484359
0.0446915
0.0520845
0.0903347
0.0606612
0.0669399
0.0642406
0.0630026
0.138257
0.0431064
0.0405938
0.0402966
0.043013
0.165819
0.000204103
0.137282
0.193808
0.000639805
0.138572
0.16806
0.139512
0.139543
0.139571
0.170137
0.107998
0.138118
0.138866
0.108381
0.134809
0.133045
0.138494
0.136663
0.113616
0.138563
0.138211
0.116372
0.138756
0.138516
0.00559021
0.13918
0.142176
0.000146442
0.138377
0.138844
0.1404
0.115246
0.140075
0.110626
0.114534
0.135241
0.139367
0.132092
0.13432
0.127188
0.152307
0.128684
0.124239
0.133228
0.128877
0.138804
0.130602
0.12748
0.121579
0.100001
0.0988615
0.00014242
0.0079285
0.157466
0.166286
0.138506
0.103006
0.105834
0.13935
0.134038
0.139841
0.139652
0.138297
0.0797198
0.0812454
0.0822495
0.123714
0.139247
0.22418
0.126444
0.105946
0.100967
0.101966
0.138683
0.0151278
0.131326
0.132728
0.100429
0.106464
0.0386585
0.148739
0.140515
0.235295
0.203033
0.138327
0.13852
0.138554
0.0953427
0.15814
0.146286
0.12848
0.126667
0.145518
0.11878
0.120526
0.108833
0.139816
0.126919
0.137093
0.133621
0.15861
0.147577
0.0744886
0.0689959
0.118439
0.119912
0.143378
0.140275
0.000713973
0.149731
0.181872
0.142244
0.140384
0.14004
0.139309
0.139846
0.126537
0.134302
0.139088
0.055538
0.0554206
0.0591859
0.13912
0.138258
0.138449
0.13806
0.139662
0.14325
0.147522
0.114244
0.0374078
0.139525
0.13816
0.145632
0.153718
0.0495495
0.0449849
0.122031
0.118979
0.161254
0.218794
0.159308
0.177547
0.0799344
0.0781841
0.110483
0.114388
0.117818
0.0848282
0.0910617
0.137904
0.13772
0.137448
0.170608
0.141033
0.13879
0.13876
0.134018
0.135786
0.1391
0.138567
0.13273
0.133183
0.131078
0.139772
0.136988
0.145699
0.149282
0.000434538
0.00648783
0.116545
0.112615
0.121994
0.0632762
0.0590174
0.167991
0.170233
0.158041
0.00567738
0.00677288
0.124906
0.0608825
0.135769
0.0606317
0.120954
0.0321394
0.0626104
0.0607457
0.0901873
0.0894706
0.105502
0.0858896
0.0858739
0.0932321
0.0941642
0.123494
0.0728949
0.0947834
0.0512121
0.0818803
0.105384
0.104923
0.0943374
0.0943013
0.111197
0.0403409
0.00398818
0.0300985
0.00625515
0.00407724
0.0686312
0.0931679
0.0933224
0.102893
0.0385986
0.0943608
0.0242354
0.0980633
0.04605
0.123763
0.0742071
0.0728106
0.0606515
0.0681239
0.0791493
0.0236953
0.0290566
0.109951
0.0483035
0.0602845
0.0622299
0.0932534
0.105224
0.0675381
0.0980297
0.0955858
0.0454789
0.0990081
0.0994204
0.101461
0.101027
0.0939824
0.0938863
0.0401638
0.0874649
0.0863994
0.0160462
0.122195
0.0420799
0.00165203
0.0638886
0.103172
0.0790183
0.00161229
0.00124733
0.108292
0.0708293
0.0207491
0.0047313
0.0904519
0.0911942
0.0958955
0.0664367
0.066367
0.0887193
0.103971
0.0650949
0.0380845
0.0397807
0.0885928
0.124727
0.124654
0.0502066
0.0459112
0.0502636
0.0492528
0.0921148
0.107425
0.0693644
0.0758509
0.0346788
0.105206
0.0191005
0.0525711
0.0554995
0.087603
0.0925005
0.0736958
0.116563
0.0669597
0.0739251
0.120517
0.0697059
0.0679349
0.123413
0.0871165
0.100105
0.121589
0.065709
0.0633624
0.0612227
0.0893075
0.0898647
0.0769451
0.0165963
0.0628603
0.00151371
0.0448298
0.0913081
0.104778
0.0872195
0.0836397
0.0707269
0.069019
0.0500237
0.118486
0.0151544
0.0860282
0.0982339
0.116565
0.118462
0.118375
0.0617295
0.0626092
0.101231
0.0850309
0.0825239
0.0581042
0.0983788
0.125063
0.109825
0.0183478
0.0625185
0.0347398
0.0766911
0.0938554
0.0971752
0.0951854
0.0964294
0.0323209
0.0355186
0.104966
0.0502517
0.0510883
0.0990043
0.0957898
0.0718139
0.0590584
0.0580052
0.0846893
0.0876211
0.0910848
0.0333149
0.1231
0.124858
0.124854
0.100009
0.0955556
0.0752367
0.0705099
0.1049
0.0968192
0.0968497
0.0333323
0.0320116
0.0314437
0.0930655
0.114602
0.110801
0.121665
0.105518
0.0890904
0.0908173
0.0894546
0.0891172
0.0874482
0.0744673
0.0584029
0.0556493
0.119862
0.0901925
0.064581
0.127246
0.0726687
0.0688588
0.0575165
0.0631898
0.0446192
0.094806
0.0872105
0.0198508
0.0837997
0.0542116
0.0841501
0.0824283
0.0870463
0.082522
0.0792967
0.0807958
0.0456317
0.0849083
0.0860838
0.0825189
0.0817399
0.0832561
0.0914012
0.104055
0.0170595
0.0673644
0.0820599
0.0833217
0.0321258
0.030891
0.115343
0.076136
0.0797928
0.0867814
0.079856
0.124597
0.0594858
0.0919076
0.0782176
0.0253684
0.0804693
0.0978054
0.0949282
0.0943437
0.0942385
0.103735
0.0952349
0.035016
0.100268
0.102197
0.0773557
0.0887352
0.0826385
0.0572564
0.0466058
0.0971759
0.071063
0.0566203
0.0306664
0.0319212
0.00684556
0.0844454
0.0837127
0.0874224
0.0238037
0.0906932
0.0902402
0.10737
0.0801265
0.0676488
0.0646077
0.111757
0.087911
0.0655276
0.0425488
0.081856
0.126181
0.101192
0.0808934
0.0742393
0.105924
0.105802
0.106638
0.104792
0.0364574
0.105918
0.10112
0.016224
0.100699
0.0451588
0.065655
0.061939
0.0968603
0.102776
0.0533006
0.051766
0.0723161
0.00623333
0.0773716
0.0420292
0.0307336
0.0246735
0.0763363
0.112409
0.0750732
0.0758973
0.0744121
0.0659406
0.106843
0.105684
0.103214
0.103131
0.0912795
0.0894363
0.069299
0.071886
0.0682926
0.0807457
0.0785839
0.0590955
0.103374
0.103399
0.0902023
0.0939638
0.0643738
0.0647223
0.0156845
0.0116648
0.0780401
0.0560701
0.0514187
0.115482
0.109443
0.0526814
0.0504388
0.0627461
0.0325698
0.0301311
0.0685586
0.0769118
0.0831705
0.0949234
0.0535534
0.0959105
0.0909195
0.101366
0.100737
0.0995279
0.0901987
0.105895
0.103224
0.099409
0.0889826
0.0430839
0.0450624
0.0380376
0.0763755
0.073672
0.0718426
0.0570525
0.0620142
0.124623
0.124824
0.12482
0.0717879
0.0784094
0.0804076
0.0780908
0.0763448
0.100538
0.100784
0.0597832
0.0986245
0.101085
0.0946254
0.0963836
0.063411
0.0610639
0.102769
0.101398
0.101675
0.10224
0.0930225
0.0947357
0.0926363
0.0876992
0.0931384
0.111774
0.0830917
0.061685
0.00117362
0.096332
0.0521217
0.050439
0.101676
0.100326
0.102202
0.11843
0.117506
0.118338
0.0408116
0.0757344
0.0735814
0.0769512
0.0802917
0.0799175
0.0787379
0.0788363
0.0877507
0.0892852
0.114335
0.0137746
0.120128
0.0456137
0.0915378
0.0892255
0.0572914
0.122316
0.0234921
0.0965546
0.096599
0.0636749
0.0620887
0.0595691
0.0650788
0.0855
0.106479
0.103487
0.0880967
0.0841276
0.0588798
0.0597856
0.0562482
0.0469268
0.111907
0.111438
0.065382
0.0679384
0.0810455
0.0607707
0.0563549
0.0576626
0.0947814
0.0924491
0.0928858
0.0154327
0.0192788
0.000615892
0.108635
0.10742
0.101803
0.0777842
0.000741552
0.0753976
0.0734703
0.0883948
0.0781361
0.0811572
0.0803047
0.0789671
0.113947
0.115783
0.0939768
0.0948368
0.0682212
0.0659893
0.109782
0.0264537
0.0684981
0.0716947
0.000537148
0.110404
0.109771
0.110613
0.104361
0.0539439
0.050652
0.0554358
0.0189459
0.045272
0.0426193
0.114501
0.113524
0.12321
0.0929686
0.0928147
0.0921481
0.100169
0.0987604
0.0990973
0.0406977
0.107049
0.106399
0.0872877
0.0856584
0.0864587
0.000497909
0.0549361
0.10593
0.0984688
0.103529
0.101624
0.102191
0.103024
0.108059
0.107553
0.0426578
0.0374317
0.108407
0.000950183
0.124439
0.12381
0.0930055
0.0945671
0.0915136
0.00133462
0.0929729
0.0878888
0.000419205
0.000958067
0.00286706
0.122399
0.122721
0.122007
0.0927569
0.0574258
0.0634947
0.0956787
0.122629
0.0819114
0.0816843
0.0808025
0.112544
0.111751
0.0546689
0.000812673
0.0991255
0.0912788
0.0926677
0.0889855
0.0373371
0.0367993
0.0910392
0.0916869
0.0907634
0.0925631
0.0922803
0.0949658
0.0919733
0.000462656
0.0545359
0.0311023
0.106694
0.103824
0.0252951
0.0224208
0.0638764
0.0648206
0.067719
0.11207
0.112552
0.110709
0.101921
0.102997
0.0599392
0.0539494
0.0951929
0.000818499
0.000351422
0.105461
0.0589262
0.0570986
0.0185864
0.018907
0.0880292
0.0568243
0.0536763
0.0671563
0.106345
0.102656
0.0968939
0.0954717
0.0280039
0.103526
0.0366168
0.124281
0.124326
0.0990655
0.0982095
0.066592
0.0625789
0.000396313
0.00074972
0.0914208
0.121396
0.121461
0.000342416
0.123828
0.124401
0.0997124
0.0757768
0.0707626
0.0730913
0.12046
0.0901561
0.0940495
0.0947364
0.0956939
0.0956659
0.0603466
0.0237368
0.0922319
0.0936741
0.0941091
0.0916866
0.0781766
0.0761396
0.101814
0.102088
0.10202
0.100818
0.121813
0.093967
0.0955268
0.00115537
0.00254747
0.0956415
0.0980531
0.0973991
0.095941
0.0736461
0.102642
0.119253
0.119614
0.0977138
0.0799359
0.0811414
0.0402969
0.0371796
0.0392198
0.0379402
0.107732
0.101757
0.100344
0.101709
0.0907253
0.0925351
0.0912323
0.0920061
0.0577665
0.0586574
0.0599384
0.0565812
0.0611558
0.0654169
0.0610839
0.000872979
0.001642
0.0681234
0.0690391
0.0894069
0.0873141
0.0884787
0.0883235
0.0463283
0.0450407
0.112828
0.114874
0.108491
0.0613897
0.0894189
0.0918064
0.0907932
0.0913067
0.0922072
0.0904645
0.111045
0.112384
0.0735369
0.0726657
0.0835798
0.0846295
0.0775945
0.0752925
0.0749266
0.0777742
0.08997
0.0904916
0.0896835
0.0906971
0.0310408
0.0207114
0.0864892
0.0885539
0.0883134
0.0865707
0.0874272
0.093911
0.0931722
0.0961034
0.00153492
0.0474091
0.045424
0.0518329
0.08558
0.0863147
0.0828013
0.0842206
0.0918185
0.0632749
0.0665485
0.0887078
0.0913178
0.0872334
0.0786916
0.0802178
0.0803317
0.0678922
0.100257
0.100265
0.0993594
0.101241
0.0766147
0.0740328
0.0771103
0.0785317
0.0805148
0.0790911
0.0956376
0.0973522
0.0973112
0.0955423
0.120978
0.12036
0.121015
0.110889
0.108072
0.109306
0.109158
0.0898654
0.0897637
0.090251
0.0894159
0.0968078
0.0958799
0.0950539
0.0974807
0.0603035
0.0675508
0.070555
0.0802946
0.0820358
0.0810995
0.01187
0.0122523
0.0795219
0.061456
0.0326622
0.0375025
0.0752928
0.0731854
0.0440191
0.0564495
0.0904973
0.0896773
0.0722135
0.0740572
0.137186
0.13741
0.0244669
0.0864121
0.083846
0.0871391
0.0850166
0.0810188
0.0307096
0.0831599
0.0821225
0.0342193
0.0414418
0.0867231
0.119936
0.119129
0.119671
0.119439
0.0138398
0.0135281
0.0896066
0.0857348
0.0887355
0.085643
0.0430357
0.0707312
0.0975985
0.0134021
0.0918293
0.0908799
0.0956221
0.0977254
0.0961664
0.0498022
0.0453927
0.0510948
0.0878275
0.0859675
0.0823426
0.0788613
0.0802503
0.103189
0.104856
0.104385
0.103588
0.117338
0.118591
0.118163
0.0312335
0.0303913
0.0818021
0.0811149
0.0805851
0.0952732
0.098915
0.109483
0.109245
0.109772
0.10888
0.0849207
0.0797744
0.0823738
0.0823489
0.0478091
0.0595369
0.0569081
0.0993601
0.0977212
0.0982575
0.0989669
0.0708371
0.0696979
0.0709842
0.0694615
0.124822
0.125019
0.124903
0.0957278
0.0956574
0.0975059
0.105118
0.105461
0.106193
0.104339
0.0268276
0.0236002
0.0231127
0.0279949
0.0612526
0.0715476
0.0677423
0.0672943
0.0941545
0.0952339
0.0951843
0.0743205
0.0723891
0.0723228
0.0690367
0.0704971
0.0708974
0.0222628
0.0179093
0.0811097
0.0783401
0.0794149
0.0799384
0.0836397
0.0853203
0.0811974
0.103394
0.118845
0.0855169
0.087782
0.0858922
0.0846404
0.0845375
0.111401
0.10799
0.136607
0.0746631
0.0746768
0.0722683
0.0902683
0.0877844
0.0896452
0.0760134
0.0748231
0.0766711
0.0740003
0.0923513
0.0925905
0.0913115
0.0785377
0.0796654
0.081959
0.0634065
0.0600698
0.0445441
0.0482054
0.0475044
0.0736243
0.0768938
0.0758156
0.0746219
0.0702352
0.0654986
0.0689232
0.0912194
0.0921708
0.0926945
0.0908233
0.0486877
0.0748171
0.0665089
0.066943
0.0643743
0.10465
0.105177
0.10564
0.104485
0.0793039
0.0820404
0.0822975
0.0792196
0.0746732
0.0744901
0.0762902
0.0110296
0.00974376
0.0113261
0.113079
0.106674
0.105366
0.106309
0.0969756
0.11176
0.111599
0.122489
0.0633885
0.103333
0.104524
0.0825404
0.0857694
0.0852182
0.0833038
0.104484
0.10418
0.0843015
0.0865745
0.0829198
0.0701524
0.0707037
0.0717007
0.089649
0.0889295
0.0889398
0.0895709
0.0419716
0.0413774
0.0430809
0.040125
0.0416257
0.0355942
0.0385312
0.0890396
0.0881126
0.0885802
0.111918
0.111408
0.0916611
0.0915485
0.0587847
0.0536791
0.054534
0.0537973
0.0511423
0.0530602
0.0849982
0.0906414
0.0928074
0.0917534
0.0917165
0.0738519
0.0777892
0.103252
0.103507
0.103486
0.100654
0.0978524
0.0993104
0.0974891
0.103508
0.104005
0.103329
0.0696302
0.0716181
0.0697968
0.0713433
0.0717865
0.0732248
0.0818333
0.0853352
0.0851833
0.103328
0.103764
0.102367
0.0843019
0.0839214
0.083503
0.0727046
0.0747337
0.0762312
0.0715069
0.0105841
0.0129485
0.0942479
0.0545477
0.049595
0.0323101
0.0890789
0.0884427
0.091603
0.000942203
0.0145832
0.101567
0.102631
0.103191
0.123147
0.123538
0.102064
0.0246094
0.0793926
0.0790462
0.0802233
0.0781317
0.117789
0.117268
0.119281
0.0804956
0.0772334
0.0790475
0.118939
0.119661
0.0880646
0.0857164
0.086311
0.087586
0.0917385
0.0899639
0.0939701
0.092776
0.0924418
0.0935431
0.0917678
0.0507466
0.0505884
0.0713976
0.0661462
0.0964557
0.057903
0.0559057
0.0563103
0.0573784
0.0419082
0.0350257
0.0942477
0.0910825
0.0931415
0.0918048
0.104031
0.105296
0.10609
0.0861908
0.100609
0.100304
0.0997678
0.101293
0.0717545
0.0717539
0.0729022
0.0254616
0.0263797
0.0991162
0.100699
0.0987018
0.0931446
0.0947749
0.0930734
0.0947183
0.0715668
0.0708152
0.0875617
0.0924491
0.0914545
0.099178
0.0985442
0.0979475
0.0706469
0.072911
0.0717364
0.071884
0.0792826
0.0784085
0.0634843
0.084039
0.080728
0.0828698
0.0820736
0.112126
0.108395
0.0533073
0.0526626
0.0926476
0.0940556
0.094036
0.0926136
0.111042
0.110229
0.11057
0.110756
0.119657
0.0903799
0.0902644
0.0854909
0.0892714
0.0879533
0.0864047
0.077916
0.0807075
0.103296
0.107754
0.106232
0.108929
0.0985921
0.0971145
0.0980228
0.0977811
0.0342986
0.062405
0.0599235
0.0371708
0.031408
0.0857228
0.0879619
0.0883447
0.086236
0.0299748
0.00463699
0.0904688
0.0909493
0.0435723
0.0902816
0.0891365
0.0708308
0.0973593
0.0999237
0.0754265
0.0784267
0.0484358
0.0443245
0.0796628
0.0950864
0.0941309
0.0964807
0.123495
0.081768
0.0781724
0.0805074
0.0858894
0.0835829
0.0860406
0.0832621
0.123233
0.12446
0.056921
0.0644192
0.0650534
0.0663731
0.0629821
0.0529086
0.0539406
0.0520873
0.0549131
0.138822
0.0913535
0.0895345
0.0913701
0.0892934
0.0521034
0.0672217
0.0609935
0.0651321
0.0636742
0.0743044
0.0749781
0.0771228
0.072026
0.13809
0.138275
0.0925822
0.0933452
0.0939983
0.0305212
0.0277484
0.0468265
0.0922728
0.090335
0.0904971
0.0920176
0.0991019
0.100075
0.0123081
0.0690975
0.0585671
0.0540783
0.05781
0.0540602
0.0672966
0.0656845
0.0682622
0.000377211
0.108988
0.109227
0.108117
0.107885
0.0975307
0.121765
0.0835993
0.0983481
0.0999827
0.0983634
0.0945781
0.0952666
0.0874849
0.0897349
0.0877325
0.0671571
0.0915048
0.093067
0.0898246
0.0996195
0.100722
0.0993887
0.120553
0.115133
0.11344
0.113765
0.114886
0.048309
0.0466185
0.0493057
0.0459796
7.74295e-05
0.0899794
0.092015
0.0919066
0.066525
0.0648353
0.0694397
0.0327619
0.00614102
0.0954791
0.096859
0.0980836
0.114435
0.114716
0.0576594
0.0594828
0.056679
0.103507
0.104423
0.102827
0.10501
0.108493
0.0994659
0.10098
0.10062
0.0997969
0.0828192
0.0817596
0.0918029
0.0903581
0.0966026
0.0954509
0.0961022
0.0957969
0.0416272
0.0468294
0.043435
0.0595551
0.0600444
0.0582327
0.0613052
0.0894209
0.0867676
0.0873253
0.088337
0.0307617
0.102069
0.0999808
0.100539
0.0173991
0.0465357
0.0431891
0.0453703
0.0440779
0.0685877
0.0728357
0.068201
0.0914865
0.090979
0.0914796
0.078749
0.0786979
0.065171
0.067136
0.0624911
0.0691063
0.105017
0.104064
0.104896
0.104135
0.10867
0.107113
0.107868
0.107957
0.0882121
0.0878135
0.0884666
0.0875088
0.00828097
0.00732167
0.0101186
0.0154121
0.0515474
0.0491717
0.0749165
0.07154
0.0729836
0.0734836
0.0697284
0.108997
0.108596
0.10787
0.109885
0.119892
0.135838
0.134928
0.135211
0.135304
0.0980342
0.0998168
0.0974134
0.0131725
0.0328706
0.0349679
0.120503
0.121083
0.120223
0.0906602
0.0906619
0.0906393
0.000103841
0.0760797
0.0713917
0.0741656
0.104749
0.106118
0.106637
0.106208
0.0688507
0.0696075
0.0701191
0.108208
0.0979118
0.0994694
0.0980355
0.0992456
0.000428257
0.0801349
0.0754977
0.0789676
0.074829
0.0696808
0.0665894
0.0712478
0.078043
0.0793414
0.0924007
0.0904807
0.0392133
0.104057
0.102863
0.103163
0.10374
0.107485
0.0810399
0.0825969
0.000713798
0.121174
0.120872
0.0863544
0.0862007
0.0856356
0.086895
0.0571593
0.0521472
0.0560051
0.054053
0.0598175
0.061794
0.133329
0.0940075
0.0961564
0.095209
0.0950199
0.0760099
0.0766566
0.0674094
0.0702834
0.063604
0.0591408
0.0660398
0.0696266
0.067663
0.0680732
0.00126162
0.0670853
0.0674542
0.065059
0.0693971
0.105655
0.105733
0.106151
0.0438568
0.0392827
0.081698
0.0817988
0.122143
0.0779578
0.0791903
0.137255
0.123837
0.0857536
0.0849406
0.0860981
0.0844718
0.133079
0.138218
0.0435314
0.0106797
0.0104229
0.0258253
0.0540564
0.00616755
0.0128388
0.0129314
0.0261418
0.0958621
0.0637538
0.13861
0.0096943
0.00952157
0.0059699
0.00533557
0.138592
0.138435
0.138461
0.138271
0.0105261
0.0785963
0.0773237
0.122313
0.117779
0.127704
0.125632
0.0924917
0.0957403
0.0173615
0.00886753
0.000338552
0.079079
0.00109943
0.0182041
0.000598522
0.0128644
0.0108179
0.130951
0.0795378
0.053098
0.0386579
0.0414467
0.000458614
0.139162
0.00532132
0.00520488
0.00618432
0.092167
0.00495517
0.149055
0.144464
0.00751682
0.137953
0.000101068
0.0241875
0.0226732
0.0114685
0.0176504
0.0274597
0.12088
0.0964689
0.0226422
0.137373
0.13747
0.0547952
0.0416067
0.0394192
0.0821452
0.0962863
0.135861
0.136477
0.0411041
0.0393196
0.129707
0.0127508
0.00168688
0.000272452
0.120469
0.118766
0.00177472
0.00793414
0.0386101
0.000906489
0.000344375
0.00562564
0.121528
0.114835
0.118188
0.118184
0.00385644
0.0434323
0.00802979
0.000170202
0.0230517
0.114103
0.117933
0.0483096
0.00808634
0.00619366
0.00577277
0.130599
0.0666409
0.13224
0.129736
0.131094
0.167796
0.0191842
0.092881
0.00479276
0.00600025
0.0010196
0.112597
0.0075327
0.0354429
0.0152111
0.045086
0.0425187
0.0419664
0.0340129
0.019877
0.0206954
0.0219556
0.0183713
0.0238159
0.046696
0.00944498
0.00974938
0.00215436
0.00396768
0.0393585
0.019322
0.0170491
0.00455143
0.00525263
0.0357245
0.0386585
0.0214146
0.0204131
0.0211838
0.00237348
0.0103811
0.0142897
0.0010891
0.000306831
0.000514164
0.0159947
0.000719789
0.00103099
0.000370508
0.000639223
0.00981813
0.00152541
0.0658463
0.0317466
0.0698678
0.025956
0.00811019
0.0104611
0.0590038
0.0323549
0.121059
0.0328484
0.111022
0.032011
0.098757
0.000789901
0.00687543
0.132969
0.0049311
0.0959485
0.0788036
0.133159
0.132317
0.0546392
0.0129715
0.138343
0.123301
0.124344
0.0264876
0.0938798
0.093298
0.132125
0.00548829
0.00872865
0.00376708
0.00626929
0.0068616
0.00628099
0.0103458
0.00538486
0.129919
0.0329811
0.00579192
0.0075247
0.00962803
0.0127726
0.0277751
0.0271472
0.0460212
0.110487
0.0100551
0.000100204
0.137891
0.137746
0.023239
0.0224085
0.0296685
0.0284841
0.0321786
0.0781578
0.0299718
0.0100287
0.00163503
0.0132452
0.0589967
0.0552825
0.105026
0.0941074
0.00499184
0.00521112
0.134303
0.0669775
0.0281848
0.0472364
0.0476209
0.00798874
0.0811716
0.137965
0.0212312
0.0232016
0.0241296
0.136528
0.136861
0.0416441
0.0362007
0.00848425
0.0801983
0.0812565
0.0364103
0.0328691
0.0132414
0.0150051
0.135141
0.136361
0.0656957
0.150566
0.143777
0.138633
0.138447
0.0147828
0.10114
0.00897419
0.0077116
0.0749112
0.00931599
0.0103783
0.0109266
0.0257442
0.106305
0.00980376
0.0109438
0.023894
0.00713719
0.00757221
0.128877
0.0136246
0.0326572
0.0129513
0.0586826
0.136944
0.137027
0.00392701
0.114574
0.00100416
0.0344052
0.0951457
0.0966805
0.0740926
0.032693
0.0322393
0.0123635
0.0210296
0.0279769
0.0641889
0.0244362
0.228196
0.184891
0.00052777
0.0383892
0.0384571
0.0370548
0.0371082
0.0130329
0.00360785
0.0853946
0.039613
0.0668731
0.0674789
0.066474
0.0261134
0.0159228
0.107135
0.122036
0.125252
0.138032
0.138114
0.0430982
0.0342003
0.0427569
0.0450898
0.0471287
0.0988876
0.0922625
0.106982
0.0605036
0.0532913
0.0433279
0.112697
0.0431289
0.0636717
0.0655558
0.0676511
0.061116
0.0284454
0.0967962
0.0955563
0.104401
0.138417
0.111305
0.109156
0.130684
0.109859
0.0189549
0.0367223
0.027702
0.119672
0.118189
0.128382
0.0145865
0.0168016
0.0624794
0.063569
0.0347707
0.0374515
0.0341071
0.0763171
0.0766994
0.078305
0.0624941
0.0168037
0.0298155
0.0291234
0.0289396
0.0380613
0.136872
0.137262
0.136864
0.137259
0.0160106
0.0158678
0.106224
0.0349005
0.0339685
0.0313327
0.0284805
0.028231
0.0317694
0.0345581
0.0341035
0.137924
0.136245
0.135683
0.0969705
0.0802214
0.0746663
0.136464
0.0399522
0.0363645
0.013795
0.102052
0.275901
0.214095
0.240149
0.088077
0.0857863
0.0875643
0.0343594
0.0336127
0.0304906
0.00150156
0.214162
0.0208706
0.0759761
0.081232
0.0794902
0.0771104
0.00257403
0.136196
0.136752
0.0112835
0.0491966
0.117576
0.138914
0.138973
0.110083
0.110276
0.000223663
0.0514545
0.0912377
0.0810747
0.0816472
0.0828156
0.000323738
0.103523
0.107578
0.100237
0.137333
0.13695
0.0559041
0.0477622
0.0502349
0.0222228
0.0483601
0.0739843
0.0747848
0.0729913
0.0928585
0.00061695
0.110564
0.108052
0.0159525
0.00397082
0.104077
0.109386
0.122163
0.118203
0.0649739
0.0632705
0.0199361
0.133388
0.0580026
0.0562614
0.0588321
0.0583009
0.196739
0.186345
0.0577573
0.0559777
0.0529755
0.0102067
0.0124207
0.0271743
0.0299147
0.0319698
0.0556046
0.0367252
0.0665963
0.0652465
0.0587644
0.11748
0.12021
0.0017123
0.0510903
0.0766627
0.0771636
0.0785955
0.0367947
0.0410017
0.102631
0.138467
0.0143368
0.072537
0.076853
0.0759215
0.122701
0.122264
0.0149406
0.135242
0.023601
0.00852469
0.0898712
0.0918705
0.0926739
0.0839964
0.082598
0.0957575
0.101341
0.0535871
0.051094
0.0215112
0.0225782
0.0285758
0.0256639
0.0172424
0.0140962
0.0162242
0.0546365
0.0617603
0.0348931
0.00536008
0.106633
0.0559875
0.0554683
0.0576054
0.0131321
0.0339754
0.124977
0.123836
0.0822769
0.0828283
0.0819794
0.0277291
0.0763522
0.00829797
0.00135369
0.138791
0.0866117
0.0387895
0.0361124
0.0389724
0.0477246
0.035304
0.000503525
0.140417
0.0745456
0.08634
0.0200485
0.025678
0.114067
0.0507267
0.0482255
0.018376
0.0916544
0.0489152
0.00737674
0.113796
0.110361
0.0981291
0.0989335
0.102027
0.00174109
0.00652507
0.0619649
0.0209398
0.0498982
0.0540813
0.0429444
0.0431582
0.0587963
0.0597073
0.0653268
0.0188644
0.0193744
0.115962
0.112102
0.138931
0.138868
0.0921386
0.0903331
0.00733999
0.0518061
0.0468525
0.0200326
0.0207574
0.068178
0.0659868
0.0108179
0.041059
0.035842
0.0607669
0.0654786
0.120014
0.117266
0.0960529
0.13858
0.138476
0.0728833
0.0714571
0.0689641
0.0678896
0.0515891
0.0476573
0.105117
0.0260278
0.0288175
0.0726241
0.0745526
0.0755866
0.0747547
0.0839785
0.0823565
0.0823594
0.0818884
0.0805785
0.103919
0.104742
0.105086
0.0415225
0.041806
0.126663
0.134786
0.135383
0.0168512
0.0103562
0.129872
0.127455
0.0428152
0.0664952
0.0703443
0.0692038
0.10156
0.136265
0.144588
0.0035778
0.0598596
0.0609676
0.069201
0.117632
0.0357547
0.139054
0.140561
0.0902837
0.0337534
0.0352055
0.0920707
0.0933789
0.0893656
0.0882562
0.0955481
0.0940078
0.0221245
0.0191634
0.0734899
0.0742821
0.139313
0.139261
0.139409
0.116195
0.0632221
0.114481
0.0574069
0.0621104
0.0722442
0.069322
0.021051
0.0690314
0.0676509
0.106274
0.107808
0.0478264
0.11282
0.0363689
0.0295955
0.138492
0.138311
0.102636
0.103178
0.101762
0.101896
0.102392
0.0224191
0.0251186
0.107319
0.0534543
0.0566194
0.0701698
0.154681
0.166208
0.0750142
0.138002
0.137672
0.0413062
0.0393349
0.138579
0.0989406
0.100445
0.0998286
0.053424
0.0553375
0.0607501
0.0647149
0.0683873
0.0662476
0.134759
0.0065778
0.0778871
0.0785225
0.076522
0.0802222
0.0338898
0.106377
0.104711
0.101463
0.0724713
0.0691131
0.0711339
0.121773
0.11745
0.112884
0.119961
0.12117
0.120681
0.133481
0.134751
0.134259
0.0870144
0.0768627
0.0778339
0.0788366
0.0242246
0.021861
0.0249657
0.115973
0.10175
0.10827
0.113471
0.072908
0.138816
0.130793
0.128763
0.0369267
0.0403301
0.0888199
0.0910839
0.0907697
0.0898116
0.0888075
0.121974
0.124364
0.118006
0.0854369
0.0866962
0.0872035
0.124056
0.124894
0.125946
0.06714
0.0654312
0.137008
0.137351
0.137524
0.0909608
0.0882179
0.0877278
0.129167
0.130202
0.0981848
0.0992888
0.0151501
0.0845101
0.0849223
0.0655559
0.0659474
0.0260057
0.0286982
0.0634242
0.0648832
0.0644077
0.121689
0.202223
0.256534
0.0480223
0.00319333
0.0664091
0.00103186
0.0860562
0.0870527
0.0678832
0.0239281
0.133181
0.138168
0.138244
0.122908
0.123939
0.0550158
0.0544635
0.138609
0.124208
0.12405
0.0132256
0.136479
0.1374
0.137794
0.112003
0.111057
0.132123
0.10711
0.104987
0.126961
0.123127
0.13145
0.131583
0.0626759
0.0629017
0.0843486
0.0864288
0.0192571
0.0960841
0.101061
0.180827
0.153042
0.0971261
0.0971153
0.117985
0.111446
0.123446
0.123215
0.154891
0.141685
0.14175
0.0543069
0.0537182
0.054681
0.0738823
0.0741227
0.0156545
0.135011
0.14076
0.127651
0.0825175
0.0807795
0.0753025
0.0750733
0.10915
0.113185
0.1113
0.0573505
0.0606876
0.0777339
0.0786061
0.105513
0.106473
0.0347342
0.0381528
0.0958445
0.0944737
0.0464843
0.0475821
0.0501558
0.10842
0.112689
0.107523
0.0261478
0.0793163
0.0786836
0.0785105
0.0621984
0.0627861
0.0616258
0.0607252
0.064267
0.151426
0.0376147
0.0410607
0.0788272
0.0795089
0.072528
0.0726077
0.073547
0.07879
0.0763354
0.0742229
0.0771733
0.0760361
0.040386
0.0415495
0.0621746
0.0650008
0.0664583
0.0728578
0.0755091
0.0286345
0.0454591
0.0481138
0.0259085
0.0235786
0.0259545
0.00085226
0.137414
0.136568
0.135842
0.138237
0.138529
0.122476
0.017871
0.0160008
0.0121667
0.0141207
0.0601025
0.0735763
0.0690015
0.0633475
0.0767829
0.077412
0.062811
0.0583223
0.0561989
0.294073
0.246092
0.0295736
0.138946
0.143531
0.0548295
0.138115
0.0423828
0.0446842
0.226454
0.205343
0.179916
0.138223
0.138428
0.138654
0.138586
0.112794