/*--------------------------------*- C++ -*----------------------------------*\
  =========                 |
  \\      /  F ield         | OpenFOAM: The Open Source CFD Toolbox
   \\    /   O peration     | Website:  https://openfoam.org
    \\  /    A nd           | Version:  6
     \\/     M anipulation  |
\*---------------------------------------------------------------------------*/
FoamFile
{
    version     2.0;
    format      ascii;
    class       volScalarField;
    location    "500";
    object      p;
}
// * * * * * * * * * * * * * * * * * * * * * * * * * * * * * * * * * * * * * //

dimensions      [0 2 -2 0 0 0 0];

internalField   nonuniform List<scalar> 
29874
(
2.96177
0.178732
0.234363
-2.8704
0.183669
-4.57594
-1.18645
0.803589
2.63155
0.685191
-2.43193
-0.0467505
-2.03748
-0.278761
-2.18122
-4.39248
-2.97916
-3.29516
0.453438
0.0678795
3.29736
-1.74303
1.32533
0.95696
3.95732
-0.693765
-2.14348
0.383099
0.492828
-2.73683
-2.57988
-3.69461
-0.617615
1.0451
3.02999
1.58175
2.98222
-1.60233
1.5088
-0.972822
1.09474
1.27049
1.53127
3.33837
-2.49564
1.88449
0.996884
-0.82543
-2.94825
4.21512
-0.383759
-2.51007
-4.14902
2.56771
-0.315484
-0.807897
-0.610278
0.918455
1.85535
-2.19194
-0.582176
2.28712
1.62262
6.26564
0.391256
1.13757
0.45294
1.27325
0.718747
0.608445
-1.88691
-1.40668
7.71134
0.62895
1.2445
-2.65945
-0.95324
-2.39875
4.68806
2.74656
-3.39645
-0.335145
1.11865
-1.54198
14.9987
12.805
0.540563
0.347133
-1.80997
-1.01613
18.6124
1.27898
1.34784
-0.59591
0.143239
3.1391
0.537191
14.7995
19.9477
-0.285696
-0.257172
0.588474
1.04963
4.83412
6.52319
19.7914
18.0137
0.18306
0.702593
0.332978
18.2707
-1.64542
-1.80277
1.22468
1.12512
1.12716
2.09734
1.72613
24.4182
1.80058
1.48643
-3.50439
-0.0601406
-0.139891
-0.118689
3.54569
-1.26929
1.43491
1.80978
4.06613
0.817943
3.1498
2.69952
1.26337
0.890265
1.66425
1.1458
-0.19108
-1.66596
3.51208
1.01472
1.54587
-0.55711
5.70936
1.05511
3.02099
-1.11233
2.11582
0.663274
1.81481
-2.1931
-0.874072
-3.36965
-0.250135
-0.609711
1.26139
3.99743
-2.21258
-1.82119
-1.97148
-1.52435
4.54143
7.32789
0.891383
0.696913
0.995733
0.580368
3.533
4.09933
1.1015
0.864718
0.688213
0.940243
16.1873
17.4336
0.804784
0.543858
23.7848
4.03506
4.13153
23.4212
23.4807
-1.44502
3.50669
4.4058
-4.59479
0.517537
0.588033
-0.116295
1.03245
1.04911
-4.88556
3.57491
3.71039
3.42429
1.90124
1.59366
-0.428111
23.2484
23.3714
-1.56364
-5.61164
3.45328
2.96194
2.38764
2.91361
2.4135
-6.25938
2.26519
2.38162
2.20763
0.655202
5.34583
3.5818
-1.37142
1.5037
0.6831
0.494792
0.506288
0.728278
-0.981982
-4.67359
-0.169068
2.35744
0.899679
0.579224
-0.2698
-0.083186
-0.573581
0.883175
0.911454
0.854635
-0.0123587
-0.567995
3.54789
3.66851
4.61002
-0.614471
0.371461
-0.628522
-1.84256
22.5605
21.8987
4.14293
2.40044
21.3902
21.6362
-9.22004
2.70934
-6.05965
16.5428
2.04207
-7.12115
16.0471
0.178187
20.9741
15.0543
23.4542
-6.26111
14.3584
-3.24486
16.0691
14.8672
-3.3739
-4.54728
-6.52805
-6.74812
3.1741
3.30477
24.7531
20.8711
21.2361
-4.86641
-6.03809
-1.23412
4.10983
-5.78012
21.2867
4.38795
-0.416507
-1.4741
0.00221096
0.519044
2.20782
1.89309
3.85282
1.04704
0.61358
20.7377
20.509
5.22616
3.51827
3.60435
-7.09594
-7.60833
14.6186
14.5049
-4.25266
-6.32056
-6.36688
-5.90556
16.2856
3.20847
17.4437
3.60957
3.53009
20.6017
2.27074
-4.35155
22.9367
-9.78228
-9.60685
-4.76043
-5.46425
-5.02628
15.0908
15.0595
-4.62114
3.62637
3.69467
-5.2822
-11.8317
20.5551
21.6692
4.09978
4.15066
4.47124
-0.559617
14.7198
14.5196
3.63636
3.00751
14.5263
14.3841
-9.48272
-5.23547
2.76466
2.20006
2.21748
2.00291
21.4024
-4.59411
21.7431
21.4061
21.4956
21.5889
1.92713
2.35642
-10.6162
3.5207
2.03672
-3.15511
-7.52974
-7.03778
-6.95578
0.402266
21.0046
20.6546
8.97964
24.7539
-3.28595
21.2839
-5.32164
21.5764
21.631
3.45606
3.49892
3.40929
6.36843
20.4383
20.7133
19.8563
20.3973
0.963734
0.682326
20.0338
18.9124
18.7505
19.1269
18.431
21.5633
21.9103
3.55875
3.34176
3.2257
2.92955
-2.15313
1.90147
1.82032
1.44012
-6.46148
-7.43452
22.2731
-4.92622
-4.51229
-10.4592
-9.85103
-10.7907
-10.932
3.01917
-5.93201
-6.46026
-5.75931
4.80988
4.78795
4.26496
21.5741
21.2752
21.169
21.097
16.0931
17.3318
16.5742
16.2108
1.83944
16.4838
15.8633
19.5491
20.0611
21.3529
21.5807
21.8445
17.159
18.2062
16.2238
17.1749
18.1377
16.7475
-1.01678
-0.276605
-4.521
-5.35468
-5.58794
-5.04269
14.8143
-3.51199
-3.30168
13.7827
14.2386
19.3304
18.6226
18.4924
18.1096
20.049
20.1089
1.7577
4.51635
4.59358
4.86999
3.80347
20.2846
20.0917
20.9768
15.7166
15.1387
15.6926
-6.05097
-5.57275
-6.22946
-5.70621
-5.81614
-4.78408
-6.34155
-5.75514
15.5224
15.2625
15.6573
4.00997
1.13768
1.0051
1.08486
0.934912
2.59549
12.0568
4.14673
4.05143
3.83827
19.7547
20.0502
19.2424
-4.32746
20.0376
18.9697
19.2776
19.292
1.2101
21.5177
21.8531
21.7079
21.1459
-2.0967
24.696
-4.94577
-2.41971
23.749
-0.48637
-2.44691
0.663073
0.743812
0.756978
-2.85013
-1.04112
2.75323
2.4282
-0.328684
5.8619
6.44719
4.48797
4.86495
-1.70215
1.58722
1.70662
11.1181
1.11038
1.19661
22.3046
0.672662
-4.33654
24.0551
-0.206136
1.05939
-1.15675
10.9861
-1.81384
-1.50044
-1.67326
1.17713
0.684063
-2.04787
-2.20676
-2.20243
-2.07801
3.82493
3.93717
0.298222
0.381687
-0.384583
5.29136
2.94441
3.03605
-0.26077
-0.339654
24.1996
22.0798
-1.35865
-1.31312
-1.90265
-0.261109
0.17576
3.42316
-3.89119
0.850864
0.952329
-0.0777577
-6.09238
-6.49798
-5.24331
9.65926
0.728674
-4.33034
-2.47649
-0.401566
-0.40283
-0.326294
-0.63874
22.4267
-3.08156
-2.78387
14.4924
13.7036
21.9108
-4.12757
-0.633155
-6.84061
-4.5516
-1.2073
-0.921796
1.30346
14.353
-4.66997
-5.36078
7.87502
8.8881
-0.426933
2.68081
2.69211
-0.614622
0.722436
1.06224
0.881376
1.11294
-5.05753
-5.68899
18.0887
18.4182
2.30433
1.87898
4.11262
4.52101
24.2556
0.261947
-4.02558
2.16088
2.32373
2.54285
0.668441
0.732662
1.57572
1.60203
1.47279
19.152
19.5876
19.198
2.0325
2.07641
1.93034
2.26727
-5.80856
-5.23833
-4.97934
-0.487923
21.21
4.09379
3.91645
3.62069
3.94393
18.6044
19.5476
9.72719
10.7233
3.4051
0.209528
3.01703
2.5593
-7.88922
-8.05025
12.8597
12.0723
11.2546
16.8731
16.2791
1.90099
1.9927
2.17448
-2.51939
1.55499
1.22744
4.67737
5.49006
5.10434
-0.760474
-0.929446
6.4007
6.45331
7.11134
0.963821
-3.40477
-3.25574
-3.0566
24.6983
22.3374
0.0795535
0.228013
0.563841
19.3385
19.5512
-0.81894
-1.28009
-0.474644
-17.8342
-17.031
5.44276
-11.5961
3.13726
16.5702
3.73516
21.9311
16.7649
3.29873
5.69174
4.81703
-12.4671
3.58582
3.52614
3.56345
3.5394
5.30152
-4.61762
-2.74734
15.9002
13.6436
3.07439
2.77623
-13.088
-13.2393
1.31958
-7.97393
23.9663
22.6947
20.7383
21.0878
2.24354
-1.45592
-0.941497
9.46495
16.415
-1.23892
23.2544
0.169872
17.5141
5.30243
13.3128
13.4055
1.56014
-5.54276
-12.6293
15.0476
15.2651
1.82068
-10.1116
3.56969
4.09712
1.09809
2.82246
-5.03995
-0.185001
2.78307
2.67958
-0.900791
-1.2174
-12.0305
-11.546
-1.33755
-0.731055
-10.8047
3.74784
3.67521
-12.7799
3.41782
-8.43007
-35.2409
4.76563
1.02496
-3.75539
-33.0405
-21.2424
3.45419
-14.2347
-13.875
16.725
6.75172
7.0089
-0.24355
15.8577
15.7807
3.55896
2.14554
11.4196
22.1318
21.9115
-3.41795
4.74867
4.58826
-10.5444
-10.471
-8.47399
-7.72754
-2.76837
1.22515
12.3939
12.2569
-2.98171
0.553163
-4.51216
2.27858
2.08679
12.5469
11.6919
-6.05144
3.10528
-4.79104
-3.87715
3.74484
14.7026
14.7681
4.41005
-2.81792
-11.6415
6.14073
-13.9297
-12.3003
-12.3497
12.182
12.5034
-13.0175
-25.5628
-12.1356
15.6881
-18.353
4.35677
2.90887
-2.89216
-3.8594
5.57328
15.6473
13.454
2.7898
-21.021
-2.19209
-0.486269
2.86976
4.38271
4.64814
-7.42289
-7.15915
3.45694
12.8763
3.23867
1.82497
-0.288931
5.23971
0.796033
22.5748
16.7039
-6.78771
-5.3739
-2.34433
-1.86625
11.65
10.5862
-0.133226
-0.990829
1.87591
-8.83237
-8.80939
-12.9211
-12.9194
2.29715
1.57788
1.43339
3.3584
-3.89983
-3.14116
-3.03912
6.08552
6.11764
5.15448
-0.366712
-0.968251
-12.943
-12.9332
4.6576
-1.10266
-1.07229
21.7334
21.9974
21.7733
-11.9869
5.83675
4.17189
6.11094
5.05816
11.6578
11.5465
-9.20391
-2.43985
3.6297
-0.400436
-8.69587
-9.23813
5.43796
-4.02237
-12.7105
3.12432
-4.37249
-4.54084
-10.5391
-11.1934
-18.0658
11.2473
12.5986
16.6302
3.38247
-11.9832
3.4169
3.20802
5.43744
6.30514
-5.32028
-5.27538
-6.58172
3.4742
3.56871
3.27289
3.24986
3.3462
-1.93711
9.40305
-20.4937
2.1239
3.39121
3.54739
-8.36781
-8.54208
2.57179
13.6828
-8.71826
-9.41894
-9.19688
4.71334
16.7503
3.73753
2.85593
-23.0783
11.9367
11.0204
3.56402
3.51899
3.45006
0.964498
-1.59934
-20.6899
-0.00802328
0.703321
-3.36597
-12.2164
-12.0918
-1.98131
-18.1987
-1.70878
-12.7514
-10.5475
15.7766
15.3973
24.1621
-12.1412
-11.8674
-11.9584
22.3273
11.4473
11.1462
3.02297
-12.2517
-7.63109
-8.16589
3.80032
-1.77051
7.18497
21.1631
-10.1858
3.28501
-0.597974
5.29092
5.05719
1.93968
2.06024
2.29646
-12.428
19.5485
-0.052023
0.186744
23.9019
1.3141
-3.13878
2.93965
2.92506
-12.6265
10.1543
1.93651
1.87017
14.9075
-3.32782
-3.94087
13.6968
-6.65983
-5.8753
2.88932
4.59545
14.5116
14.4271
14.8151
12.5178
2.91943
1.98703
0.662661
0.924047
-3.14287
-3.58399
-7.24208
-6.12802
-6.75681
13.1371
13.4796
16.5266
0.777799
1.06413
-12.8759
-12.9096
-8.79223
-9.32703
-4.71317
-3.95173
-2.8054
-4.04262
-3.37284
3.81009
3.31601
14.0729
14.621
-8.78861
22.5629
18.1995
14.8823
-11.2876
-10.8923
-11.6882
-9.8234
3.28993
3.58499
3.7834
3.82617
3.5813
-8.55608
2.34563
2.49619
3.01144
-3.10988
-3.37871
-3.95813
-3.18355
3.72638
-9.88601
-9.79246
5.19144
15.4773
4.70259
5.38162
4.85586
14.7896
11.9132
11.9773
13.9913
14.3321
-0.0615628
0.541943
1.33736
-0.738725
-0.317473
-2.13197
-2.10697
16.4074
16.7959
-12.2524
-11.9165
-11.9236
-12.0831
-2.08157
-0.905248
-1.48375
3.58259
-1.80295
4.36146
11.7824
-6.29762
19.1597
-11.1397
15.1271
15.1439
3.01697
3.17952
3.06292
2.43992
2.61621
3.23617
21.6735
3.39342
3.32851
3.43715
3.15398
3.13489
3.13159
2.91068
-3.87828
-3.4971
5.43652
23.7422
4.21438
-7.39144
3.84805
12.1485
-4.39547
3.8821
-13.269
-1.27291
-1.17543
-12.6282
12.8223
12.6664
12.6611
3.57601
1.63129
1.88951
4.02651
3.75897
3.05255
2.90714
2.91671
16.6115
5.32547
4.84778
-7.85762
-7.28341
3.08653
-7.77459
-8.15744
-7.66549
-1.81506
-2.37105
-1.55357
21.5942
-12.5451
23.4365
3.41277
2.91269
2.47851
2.95279
22.2813
14.6815
14.8834
3.71142
14.0575
13.5022
13.3676
13.766
1.67624
2.07666
11.0611
11.1931
-12.2484
-12.3302
1.23201
-2.02822
-4.51816
-3.51558
23.7047
4.34497
4.02088
4.2694
1.42986
-9.60558
-9.66442
-9.26486
-7.0316
-11.3867
-11.3218
2.19409
1.86431
4.70067
3.5197
3.60735
3.55317
3.50223
3.38718
3.46904
22.075
3.25537
2.78262
3.47739
3.38328
3.52683
23.8858
16.9161
-0.0330244
-1.36827
3.14614
3.423
3.09029
3.08707
3.39116
2.73185
14.2585
14.4325
3.48007
21.3019
4.74702
4.27117
-9.61419
-10.4671
-10.5036
20.3346
4.93744
4.83519
24.0812
21.4543
21.2523
6.5117
6.16103
6.13331
-1.25931
-6.08478
-5.30406
4.76044
3.83099
13.5463
13.7427
13.8297
2.23118
1.36059
14.132
22.9445
6.48473
-9.51254
-9.58359
-8.46424
22.0815
22.1533
3.77694
3.6794
3.66676
3.7863
3.6336
3.70901
11.5563
24.12
2.79872
20.6074
5.72791
5.80531
-10.7845
-11.4537
15.6942
15.4988
3.13186
2.26758
1.578
0.901757
0.354328
1.21713
-9.80398
-9.02096
-1.49511
22.3175
24.3607
-12.5867
14.958
14.666
-14.0676
-14.0041
12.3247
-7.84952
-8.50255
15.9744
1.05674
1.00794
11.0226
11.1568
-10.3331
-12.4212
21.7415
5.30353
5.29212
-1.10284
-1.33147
-10.3089
-10.1104
24.3806
24.3811
-12.48
4.68549
4.2284
24.5282
4.20164
4.36798
10.5356
-12.3847
-12.7323
-11.9359
4.9121
4.13698
4.33319
3.51166
3.47641
3.48171
-8.35016
23.28
3.82246
4.05012
4.10543
4.13937
3.08439
2.8686
1.92095
3.38641
0.4539
0.501017
6.15592
3.55249
3.52853
21.3672
21.769
-10.8155
-11.2701
-11.6926
-11.6151
13.8271
-12.1274
3.27811
3.38563
-1.53376
13.8726
13.6716
21.6467
22.028
21.6493
21.5908
3.02908
10.7582
10.2715
10.1154
-3.1887
-2.70407
-2.12767
-1.67094
14.2698
13.5956
14.4931
14.8768
-6.87748
-7.30376
-7.70892
23.2841
23.6097
15.9747
15.7122
11.8896
11.9917
12.2934
12.3663
-15.718
-7.50285
-0.122057
-0.165535
-5.21262
-5.58923
4.94932
5.07311
-9.38871
-9.50939
-9.13808
-8.10794
4.53595
4.38624
2.82713
2.83948
3.28257
3.34486
13.3744
13.8372
13.3685
12.6919
3.70026
3.61539
3.55407
3.53401
-0.938524
21.7979
3.44251
3.5691
3.59314
3.61965
7.27615
-10.7874
-10.0424
-10.7015
-6.3434
-7.26368
-6.88541
-7.22512
12.5469
11.8549
12.2183
-4.97968
3.84725
-5.50994
-3.86832
-9.94276
-9.87366
-9.3376
13.804
13.5474
13.7671
-8.66948
-12.5449
-12.2439
-12.5041
-12.4003
-10.9295
-10.2505
-10.9711
13.2882
13.1656
12.8529
-1.7643
-1.24728
0.331889
-0.238098
4.49806
4.53359
4.39483
1.59058
1.69477
1.23962
3.9304
3.78197
3.65966
3.65699
3.64402
-11.925
-11.647
-12.1788
-12.2973
-9.1311
-7.01885
-6.31945
13.6439
13.4921
13.4213
-3.01821
-3.51357
-4.02752
15.4119
-4.46116
-4.81743
-6.31105
-6.69919
20.2482
19.6249
12.0295
11.9802
15.1852
14.8024
2.23219
2.02757
-9.82377
-8.27769
-7.41797
-8.12959
-12.1379
-12.7605
-10.0426
-2.64145
-3.077
-6.81314
-7.43636
-7.63965
3.22192
2.99647
3.64592
3.5426
-25.2269
-25.0002
-10.546
-10.3977
-9.66189
-10.3987
-9.0723
2.62928
3.23522
-24.7468
11.6997
11.9444
4.05853
3.94075
3.80908
20.3733
20.3578
20.2271
-8.06104
-7.0006
3.68314
3.51352
3.65224
2.98054
2.72203
2.68652
2.56115
3.07264
3.17332
3.23158
-7.61129
-7.91962
13.5045
13.4188
13.6464
0.890189
0.490172
3.11591
3.40955
3.72935
3.12496
-9.08595
-8.99924
-8.9496
-8.17214
-7.09163
13.9149
14.01
0.13285
-0.504304
-1.29503
-0.6204
15.8268
15.5535
15.1942
15.4414
5.04444
4.79219
5.00957
-1.7423
-0.64313
0.0551785
0.257719
0.641135
0.358289
-0.121031
16.9252
17.9636
17.3317
17.5959
16.9356
-6.45454
-7.09701
-6.43685
11.2049
11.1955
10.597
14.1432
14.7076
-5.47415
-6.26996
-6.16344
-6.09996
-5.64773
-4.79999
4.05137
3.79154
3.9396
3.77756
4.44107
4.84623
4.32082
5.42851
4.96491
3.36655
3.47197
12.2852
12.9012
12.6905
0.433159
0.0312967
2.39784
3.8144
3.73435
3.9215
11.2216
11.6359
11.6974
-5.77676
-6.17398
-4.5351
-5.36475
3.62225
3.58553
3.58377
-7.74941
-7.2122
-7.96813
14.939
15.0306
14.6652
14.5773
14.4061
14.0672
13.4677
13.9343
13.7468
14.9724
15.156
14.7572
3.56816
3.51589
3.58707
3.51722
-10.1854
14.4655
13.5568
13.983
13.7203
-12.5415
-12.6503
-12.1985
-12.0165
-2.8528
-2.61412
-3.64349
-3.83615
14.6002
14.5177
14.0179
23.2194
23.224
23.283
2.21395
2.75205
2.4829
2.58238
10.8755
5.46446
5.16447
3.68297
-5.05377
-12.4379
0.260032
-11.4753
-11.6272
-11.122
-10.5097
-12.5223
-12.4999
4.29586
4.28779
4.08056
14.6789
14.6523
14.4792
3.7142
3.64893
3.5664
3.64504
21.9728
22.0691
21.7705
22.0491
-5.82421
-5.5268
-5.1575
3.74166
3.73246
3.77683
5.14343
4.3139
3.85734
3.84591
-7.91375
-8.26121
-7.60578
-8.51542
-8.49516
-8.6629
6.19629
12.0158
11.3591
11.5328
11.867
-4.35654
-4.85237
2.7039
2.48003
3.73808
-0.0225825
-11.4561
-11.3732
-10.8706
1.16111
2.19516
0.834728
-7.49607
-7.07507
-6.55444
-6.64819
-10.762
-11.0245
-12.2542
-12.0236
-11.3126
1.01328
0.708505
-0.183658
3.33701
3.29444
3.29536
-9.05881
-8.56702
-9.13621
-8.98056
-22.4368
-21.7295
-0.984243
-6.6953
16.0734
21.6121
4.63726
4.34677
4.59986
18.6577
-26.1093
0.0695183
0.621347
0.0298038
6.26172
6.52304
-0.0708866
21.3541
3.21326
3.10844
3.32793
3.25354
1.66502
1.22199
1.36691
-4.76676
-5.80511
-5.37218
2.52194
3.28269
3.91467
3.89086
3.65309
3.82094
-0.790958
-1.02011
-0.830614
3.51578
3.51434
3.5633
3.51974
-9.89057
-9.16023
-11.8914
-11.1242
0.292548
2.077
1.7154
2.10419
2.0357
-6.69487
-6.16912
-10.6732
-10.4443
-10.9578
-11.1233
-0.34823
-12.545
-12.6025
5.29154
2.64993
3.07782
3.24755
2.9111
15.1055
15.3657
15.1324
-5.10647
-4.70145
-11.4892
-12.0584
-12.1021
-2.47692
-2.00622
-0.927299
-0.432801
4.24201
3.87512
-9.81044
-11.0315
-9.47715
3.30338
3.29062
3.29325
14.9454
14.5196
14.4702
14.9465
13.9806
14.0869
3.43772
-1.92745
-2.53867
-3.17596
-3.13053
-3.1427
-3.38565
15.2379
15.5466
-3.32465
-2.24683
-1.59553
-1.64955
4.47496
3.99127
4.34487
4.53326
-2.45214
4.08233
4.12718
-9.77171
-10.278
-10.1634
-10.3071
-11.2629
-11.623
1.33483
2.5471
2.96199
2.80305
-0.521199
-1.01563
-1.39164
-1.38969
22.4433
15.4754
16.1098
-11.2025
-12.0391
-8.89027
-8.41838
-8.66279
-7.74101
-21.8232
-3.27867
3.8964
3.91948
-18.1159
3.53061
3.53405
-7.56145
4.87574
4.81985
4.89688
4.93409
20.8222
21.0891
3.05918
-10.6111
-9.89486
-10.586
3.82254
-4.06605
-4.53467
-4.61408
-2.86249
-3.46651
-1.77612
-2.08436
2.41618
2.19587
15.966
-8.04559
-7.66713
-6.79171
-7.39672
14.7048
14.3029
14.995
15.1065
3.56952
3.7183
3.63885
3.78563
3.91964
20.9128
-4.85388
-4.5111
-4.54317
-3.62044
-7.56116
-8.43883
-8.91071
-8.58512
1.68423
1.61488
11.6499
11.2348
11.6779
-5.54492
-5.44047
-7.24379
-2.77892
-3.02788
-1.76386
-1.53614
-0.155451
-0.907701
22.1594
15.1957
-6.66905
-5.9542
-6.2569
-6.86958
14.8185
15.0126
14.6253
20.1964
3.52714
3.67822
3.4999
1.36674
1.31478
3.50418
-5.14552
-0.973426
0.552885
0.164542
3.53738
3.44719
-2.70363
-2.09811
-3.26933
-11.4016
-13.11
-13.0678
-13.3102
-0.726844
0.462105
-0.481995
3.06532
2.73949
3.09938
2.35572
2.73044
20.8965
21.2668
21.2498
21.5263
23.5923
-2.03744
-1.36628
-2.32094
3.88015
4.19738
4.33058
22.6026
23.7698
5.50995
-12.03
-12.3347
1.86196
2.02687
-12.2981
-12.5642
-12.1629
3.2229
3.39734
3.70317
3.45257
2.62772
-0.448786
-0.282224
0.624855
1.02327
3.36529
3.19592
11.6178
11.6403
3.41979
3.49319
3.3002
3.38442
-8.86168
-8.10099
-9.11026
-8.76173
-8.6018
-8.31279
-7.51781
-7.81436
-7.06779
-8.35482
-8.21762
-9.9793
-12.8926
-13.0157
-12.552
18.7837
21.2333
21.3475
20.7125
21.0261
-9.93063
-9.98701
-9.54291
3.82621
3.77135
3.79486
2.88493
2.90789
-2.0473
-2.70788
-2.54928
-3.24325
1.30468
0.729869
2.5941
2.27502
0.838565
0.472099
0.692978
0.999978
3.57794
3.60818
3.53674
3.44125
-3.63555
-3.49981
-3.72878
-15.2438
17.9954
18.2278
-3.60677
-4.08209
-4.3577
-3.99204
-7.43863
0.934018
0.252517
0.990323
0.826348
5.62647
5.25741
6.08869
5.61656
5.17043
-11.5486
-11.3898
-10.8317
-13.3255
20.8279
20.8634
3.85514
3.86483
3.42707
4.13236
4.15563
4.10345
24.8096
-10.718
-10.75
-11.2222
1.809
-12.4543
-12.7502
-12.7697
15.7468
15.6971
15.4912
-12.5662
-1.09315
-0.505377
0.510627
0.838382
21.9399
-9.56114
-9.19949
-8.39917
-9.81719
5.01622
4.89545
4.90601
14.1295
13.8899
-11.5926
-11.5255
22.0255
1.10299
0.22527
1.44783
2.23026
-6.80697
-6.60689
-6.56666
14.2338
1.56859
1.58757
3.5238
3.59743
3.36945
3.43732
20.122
20.5933
20.3928
20.8409
15.4105
14.4891
-7.88842
-1.85617
-1.19723
-1.72523
-1.85936
14.3209
14.2124
13.9412
13.4714
-6.08789
-6.14201
-4.82601
-4.38947
-4.99069
-5.21775
6.8208
-7.6252
-8.04405
-8.13264
-8.64321
2.28355
3.14202
3.41451
-10.0496
-9.47531
12.2821
12.0333
3.59217
14.1674
14.0681
0.705915
4.79697
3.38384
3.37413
3.48241
3.46218
-5.76042
0.293406
-16.2168
24.2396
24.2478
18.6087
-17.0125
24.277
24.2804
24.2509
-21.6369
-0.355272
-15.0634
0.000564214
24.1372
23.1126
23.6712
23.8568
-1.81046
0.0644119
0.0898754
0.16174
24.4443
-3.72057
-3.14564
6.65826
7.59629
-4.05831
-4.51898
-1.07436
-0.411608
19.1172
24.421
23.7719
-0.583813
21.6686
23.342
23.6639
22.6299
21.4685
7.17967
3.00967
-16.096
16.8274
19.0809
23.9174
0.520924
24.2035
24.1935
24.1924
-2.19008
24.0763
-4.20834
-4.63401
23.9093
-4.16102
23.9507
-7.6538
-8.03853
22.4194
18.6608
20.2768
0.811276
-3.00377
22.4371
1.11853
0.890121
-16.8225
19.038
19.6595
0.396193
-0.67107
0.674932
0.925163
-19.2536
-19.7348
7.74809
-21.7662
24.5637
24.7257
0.240027
-0.0674225
23.6683
22.0518
-19.8898
22.5273
23.9421
21.0637
10.292
11.9023
11.1869
-6.75283
20.9139
4.00903
24.5625
24.786
22.5968
8.95397
8.25356
18.0322
24.5749
22.8707
22.9544
0.884897
-4.81553
6.223
7.18819
6.54012
-3.6262
19.0692
-1.29213
24.637
24.5867
24.6349
7.45505
18.9259
22.4499
19.32
16.7692
16.8061
16.666
22.4712
23.5719
23.5173
23.2092
23.5912
23.3282
17.1585
24.3438
24.3441
20.5279
19.67
19.2794
23.4475
23.8301
23.733
23.6732
13.8592
13.9825
23.0942
23.2735
23.3401
24.6464
-27.5389
23.9475
19.7088
24.7682
24.7846
23.4467
23.2395
23.1616
23.8894
23.8281
22.6619
23.1838
1.75193
-20.8046
-12.6539
23.1875
-23.1143
-22.2817
-12.0338
22.443
3.30473
20.3985
-1.40021
22.5919
4.25991
22.5279
24.464
1.49034
24.6627
0.327814
-0.0374205
2.05365
2.34432
17.9974
24.2358
-2.76122
0.672895
0.998181
20.9538
-12.9472
-13.1236
2.86937
24.2082
20.5781
24.7051
24.5752
24.5537
24.5283
24.305
23.9472
3.70793
22.707
23.942
23.8956
20.5316
20.2895
23.0405
23.0559
-0.124832
11.6397
24.4768
24.694
1.78165
1.81165
22.9052
22.8533
21.5041
21.5431
17.3423
2.83787
-9.79752
18.8309
19.7377
19.8025
-0.842739
-0.743556
-0.892165
-0.202288
22.9235
22.6673
2.11508
-13.3555
21.0853
16.3947
15.9531
23.7378
-1.45725
0.334065
18.8766
19.0358
20.9965
-3.04659
-2.8423
16.1896
16.3876
23.5161
-4.32376
-5.18576
15.8674
16.0811
19.2511
19.2913
2.30664
1.99659
1.69032
-3.52232
-4.03874
0.559381
0.49657
22.3917
-0.899807
23.274
17.3718
-2.27531
22.9688
18.0514
18.3246
-22.976
-0.59735
22.1779
22.3211
21.4937
21.4512
21.4783
7.59618
22.2702
22.6626
22.6812
1.31375
2.5801
2.46585
23.6798
4.66886
22.1629
-20.7381
-2.01882
-1.5379
0.0946646
22.5146
22.5742
21.5735
-24.1369
18.7794
16.278
22.4623
-3.44413
-3.37689
21.1025
22.127
22.1992
22.2523
22.2971
-21.2476
24.4253
-4.98194
22.1289
16.0429
15.9626
16.0598
23.1407
21.458
-1.23339
7.80152
7.20534
0.1661
0.253515
-17.0664
22.4809
-17.0122
17.044
17.0004
8.52147
9.34004
8.32219
-3.26866
-2.95363
-17.1876
-1.06869
17.2896
3.16738
3.2272
3.31805
16.7238
22.6634
-1.56811
-2.22703
-1.32703
-2.11436
0.108267
-0.461289
1.81417
-2.79538
18.5378
-10.0921
-7.85213
1.17648
0.730108
2.43662
22.3174
21.9753
1.53046
-13.7227
22.3771
16.6405
16.9341
14.5527
14.2981
14.3499
-12.0775
23.8393
22.9067
22.9347
17.5464
19.0722
1.97843
1.88771
2.36915
2.05313
23.8699
23.8386
-2.08996
19.376
19.3841
20.4304
20.3891
19.9884
21.3695
21.2322
20.9825
1.14869
1.24703
1.41338
5.34444
3.04509
0.6449
3.73219
-6.93896
-6.63443
24.0993
9.92373
-4.92282
-3.91753
-4.31749
-11.9931
-11.3752
3.75303
20.062
19.6097
19.6319
24.6235
0.0095942
20.6866
-11.5736
-11.8227
-11.9852
-11.6017
24.3401
3.31781
3.04222
24.2861
16.3482
-4.91383
0.802024
0.908821
-0.565087
-0.472177
24.7696
16.1928
-6.16994
-5.44746
-5.40172
-6.28037
24.4844
-1.80483
-2.21784
-1.72169
0.828112
0.78886
-2.53854
17.3027
17.0896
-0.707639
18.0284
-7.252
-6.98029
-7.3014
0.465455
23.2797
-0.895388
-0.532695
23.7016
23.6083
2.14736
1.74855
8.32122
9.63842
14.6247
14.6435
23.6035
-7.85632
16.2269
16.2634
16.0294
16.1183
0.750991
-1.20104
-5.35923
-5.78473
-6.21675
24.1643
24.1579
-5.90916
-6.13311
-6.05443
-11.5754
-9.21475
-12.8225
-13.2347
14.8151
-4.72928
-4.49761
24.2112
14.0985
14.4829
14.3772
13.9279
18.972
19.077
0.879489
-2.56415
23.5935
-3.83122
-4.15837
-4.45153
1.60124
0.9532
23.4117
0.776287
22.2827
22.9541
-2.96797
-3.09172
-2.38107
-8.384
-7.76616
15.3895
14.7405
17.176
16.9626
18.5378
19.1104
18.9855
19.4852
19.9737
19.7997
19.5972
17.1829
14.4
20.2287
22.8125
11.4346
-9.51459
-9.79432
-9.67234
23.9344
20.3651
3.76592
3.47011
3.22069
3.2377
3.15868
19.4209
-11.2576
-4.17506
24.1249
0.0724964
-4.10549
15.4448
15.1567
14.9958
1.5742
22.4885
24.77
-6.5222
-2.65862
-0.64662
19.8948
19.9926
2.24721
-10.4221
-10.6381
21.7396
-5.26922
-5.67705
22.7436
-0.96818
-1.37082
3.78673
3.90753
-0.704157
18.9319
-20.6809
16.1739
21.0574
20.7718
20.3809
2.74535
2.44446
16.8974
16.9219
16.27
23.6076
23.5782
0.209198
-0.519004
1.07569
1.10563
4.48319
4.31096
24.5894
14.6303
14.9265
23.4693
23.4366
3.60726
3.53726
-4.99783
-2.44897
-2.21112
-0.354918
-0.513439
0.766085
0.561737
13.1389
0.941935
0.943042
-11.4509
-11.2283
15.0366
15.2016
-6.87118
-6.33849
-0.543203
-12.9579
-12.4435
14.8006
14.5625
14.6141
14.438
-5.44304
-5.79102
3.25621
3.21056
3.15094
1.51719
2.09235
2.29337
21.8451
21.8928
1.46478
1.82428
1.69694
22.8036
21.9182
6.92962
7.92219
21.4895
14.0829
14.1469
14.1167
0.389442
-6.73098
-5.63435
23.5074
16.7818
16.5944
-8.67317
0.350835
22.4498
-1.54798
-1.42476
-2.78972
21.9733
22.1502
5.14569
5.24214
5.57048
5.60015
3.66627
3.61658
-2.05854
-1.78511
-0.304769
-0.499108
0.792192
0.752343
0.783465
5.04628
-4.35869
-1.67846
17.4017
17.6169
16.1734
17.11
17.1523
15.6468
15.6084
3.29194
3.16765
16.7737
-3.03605
-8.77946
18.9578
1.33718
1.42928
6.37402
0.752894
-0.462049
0.391815
0.560925
15.6615
15.7937
-0.884892
-6.50341
-6.01571
15.1303
2.93289
2.29252
-2.7136
0.724073
0.775167
15.8057
-8.62261
0.564525
-1.41958
-0.267838
0.151661
15.6846
15.4631
19.8808
19.3254
15.1496
15.6623
4.80819
23.2746
14.0452
13.8051
14.0079
-5.93509
22.3224
-5.58759
-5.94922
-7.95566
3.36677
3.33065
3.51624
3.36476
-5.40187
-6.15318
3.14184
3.57518
3.3763
1.70415
1.42833
1.37371
0.0122193
-0.167091
14.0857
14.1877
20.5688
20.8074
20.5494
1.02005
0.925466
1.49881
1.59639
-13.5818
-0.606185
5.72649
6.74608
-5.93664
-6.07133
-9.21473
-9.71036
3.54579
3.5143
3.49173
9.32276
8.62009
10.0163
-0.490132
-0.429566
-0.182051
1.45525
1.80685
1.51146
14.3276
15.0133
2.72156
2.58598
2.31709
-11.2503
-10.8471
-11.4686
1.5579
1.48416
-11.1628
-11.4915
-5.30693
-6.69413
-6.68626
15.4873
15.3837
-13.1585
-12.6617
15.5812
15.3131
15.2097
3.42193
-2.8723
-0.324659
15.04
24.109
2.35251
22.6503
3.42226
3.45388
-8.05513
21.3475
2.91815
1.53826
1.4047
3.07738
3.02464
15.135
15.3526
0.787513
4.68469
4.66711
-4.87904
4.55803
4.29756
4.02573
1.79072
1.22916
6.39221
3.65914
3.66905
5.50363
5.85774
1.06189
1.3893
16.4327
16.4052
3.94902
4.11175
-24.5834
4.51845
4.53059
-4.31098
-5.45503
3.6255
3.52564
5.78211
6.12047
4.16545
4.06897
-2.33393
-2.51069
-2.70218
16.5375
16.7616
16.8224
14.8338
14.9145
22.0939
-1.55819
-1.44653
8.51097
-4.12327
-4.25909
2.83377
2.73698
-3.67937
-3.14399
-4.00056
-8.86699
-9.38811
2.9336
2.99321
-0.397242
-0.158332
18.4009
17.6411
-10.6775
-10.3329
-9.066
-9.66982
-9.89127
-7.36867
-6.94302
-8.36292
21.7148
-4.08822
-3.92089
-3.99124
16.4071
16.3571
16.7611
13.2635
12.6957
-0.723391
20.4636
20.4075
14.0419
13.8946
2.66044
2.72506
2.78757
4.70373
4.34995
4.41199
14.1623
14.3816
21.9332
21.7558
15.8481
15.2739
15.3725
-2.67876
-3.04773
-7.02268
-10.858
-10.6561
20.8347
20.8095
21.0941
24.0403
4.24661
4.7203
5.23337
-0.216282
-0.171368
3.63749
18.4764
19.0553
18.6979
19.2092
18.1884
17.3654
18.0317
18.6205
2.69937
2.72533
-5.48863
-4.87556
-5.50534
-3.30298
-3.02764
-21.2475
-2.29488
-2.51912
-10.3396
-1.90366
20.8283
20.8401
-3.90151
-3.52893
-3.54438
1.48627
1.42185
1.23375
1.25359
0.670885
17.8351
2.22885
2.68403
-0.180428
-0.0665077
-0.1805
-12.6311
-11.6772
-10.4508
23.4168
23.1793
-11.7242
-11.3089
2.69245
3.20768
21.2814
21.3721
20.806
21.3086
1.53364
1.5645
-3.38963
-3.74471
-0.158807
-0.3215
-0.64068
17.9966
17.9932
16.6932
0.9222
0.848228
0.882305
-2.98938
-3.86565
-4.09514
-4.53908
1.01915
1.97354
2.71348
2.19754
1.05558
0.959578
0.886907
4.11352
-0.877202
-0.621515
20.5091
5.74224
2.34842
20.346
19.8964
-13.3349
21.85
1.26999
-12.8904
-15.717
-8.09122
-11.9161
7.69368
4.54441
-2.41933
4.41483
-3.00774
0.84185
6.60183
4.3511
-11.638
7.83826
4.05273
-9.8827
4.06956
8.85083
8.22889
-7.98078
5.70773
6.88271
6.87913
-9.06778
-10.4135
9.46101
-11.8646
8.98242
6.02769
3.34377
-3.65091
-8.19506
7.59504
9.17575
4.95672
3.69669
3.7355
13.8605
7.30785
0.519312
0.103251
0.0963697
-15.7131
9.49847
10.8653
10.5142
4.12203
4.82249
2.98733
3.60315
4.20475
9.32185
-13.6179
-13.7171
-4.31219
5.80977
-12.8006
2.67157
7.64274
0.678725
-3.29971
7.86103
3.17853
0.0331349
-9.37061
10.3157
11.1731
-28.6524
7.57379
-3.10428
1.1913
11.8446
5.24651
-15.4754
21.5176
21.9072
-11.7012
-12.3497
5.60083
4.91708
4.84491
-4.25219
2.11403
4.74366
3.1955
9.75834
7.16744
9.24214
-2.11075
-2.34668
7.4306
7.07347
8.07101
-18.2325
10.0147
9.94
-2.99898
-2.9905
3.25643
4.43906
5.70193
5.95566
-8.78425
-9.73389
9.04619
9.68784
9.54518
9.88384
0.97435
1.73609
-13.2421
-14.2711
0.992528
1.5833
-10.7868
-5.48472
-6.36839
6.01043
5.9612
-14.1399
8.84204
8.162
5.92107
5.24682
5.3325
4.51583
-13.0154
8.41165
7.9934
1.34042
2.638
-14.1819
7.40449
-14.2671
0.833012
13.6201
0.241057
2.84896
8.5843
5.94464
-0.295125
0.24782
-12.7133
-0.270715
9.91284
2.63017
1.96486
1.02888
4.46814
0.728762
0.025687
6.4088
6.58629
6.40857
4.82457
13.3197
-1.16847
10.3305
7.97946
8.8132
2.38122
1.89309
12.9113
13.1676
2.72234
-18.6432
0.961716
1.39205
-12.1177
-12.3047
7.81459
7.26893
-5.48368
-6.03186
-7.05567
10.2369
10.593
6.93912
-28.9004
7.10239
7.99155
8.10594
-11.205
-0.972348
7.60299
-12.3488
3.21831
-15.8341
-2.8585
-3.18087
0.883772
0.519632
-10.4957
-1.84897
4.25528
3.33098
2.53743
1.95768
2.68922
8.009
9.54756
9.747
14.0607
-0.411736
-0.830009
-8.36094
7.72714
5.32009
-9.93703
5.89623
6.15905
6.38718
3.31053
3.83197
9.67943
5.31626
5.41994
2.4745
2.70419
9.57403
8.92546
3.19909
3.77364
-2.85513
10.2722
9.98619
-9.74199
4.09077
4.1364
3.91208
3.30399
3.34342
3.29596
-13.9097
-0.737975
2.80473
2.84632
3.43595
2.68249
3.40816
3.2574
9.01545
8.90932
3.63983
-12.12
9.70241
-17.8818
0.662938
1.57723
9.24723
9.01017
8.84515
8.37131
-12.5597
5.51185
-2.91502
-2.69225
7.29517
7.99086
3.84267
0.778736
1.38421
1.83851
12.214
13.0162
6.42832
6.88176
9.26516
9.66203
9.62344
9.85007
4.67836
4.12145
-12.8509
-12.7836
1.15941
0.804726
-0.301964
-0.0487081
21.5103
21.4864
21.7277
7.71723
7.44423
7.15936
4.85965
4.7031
7.78858
7.69976
7.90829
0.808226
0.0286802
12.883
12.0619
7.62973
7.41285
7.95892
8.09012
-12.8724
14.2878
14.3341
0.700407
-0.252654
6.84361
6.87272
1.61625
1.91952
2.858
3.23158
6.8477
5.18644
2.59231
-5.30197
-5.62387
-13.8098
2.45189
2.02545
2.86415
3.33579
7.68107
-6.24559
-7.20381
-6.39496
-2.0633
0.957896
1.68343
13.5168
14.1419
3.36964
3.02327
8.43674
8.709
-2.85438
-3.10654
10.1505
10.3317
0.327447
0.901947
6.96931
7.45633
7.46533
7.31523
7.02407
6.74976
-0.993283
-1.4305
10.1777
10.1331
-11.3908
-10.4675
22.3126
7.50657
6.74549
6.80389
-5.64754
-6.36145
0.69704
0.851838
-3.07854
5.01447
4.93796
4.53202
4.02073
8.96481
9.01556
4.52936
-18.4519
-15.2151
4.3908
5.78732
8.23095
8.94268
0.20893
4.13133
3.86111
8.79466
9.30699
10.3416
11.0209
10.5282
8.65176
7.90508
-13.6984
-1.50638
7.56805
8.00404
7.50007
7.93295
3.80641
3.72708
3.5882
3.64699
2.61361
4.17943
3.42291
5.97187
4.04739
4.02525
4.1535
-12.7525
-12.5905
-12.8431
-3.25148
8.97937
8.65644
1.83343
2.07013
0.930475
0.225528