/*--------------------------------*- C++ -*----------------------------------*\
  =========                 |
  \\      /  F ield         | OpenFOAM: The Open Source CFD Toolbox
   \\    /   O peration     | Website:  https://openfoam.org
    \\  /    A nd           | Version:  6
     \\/     M anipulation  |
\*---------------------------------------------------------------------------*/
FoamFile
{
    version     2.0;
    format      ascii;
    class       surfaceScalarField;
    location    "500";
    object      phi;
}
// * * * * * * * * * * * * * * * * * * * * * * * * * * * * * * * * * * * * * //

dimensions      [0 3 -1 0 0 0 0];

internalField   nonuniform List<scalar> 
44596
(
1.54184
-2.16981
0.627968
1.54183
1.44655
-1.44655
1.93788
-0.491337
-0.0941275
-2.15435
2.10642
-0.564588
1.31313
-1.31313
0.215959
1.81675
-2.2123
0.765755
-0.267248
2.3006
-0.802198
-1.2101
0.802198
1.30423
-0.56158
-1.34643
0.56158
0.751554
-0.594871
-0.825739
0.825739
-1.1706
1.38656
1.1943
0.636446
-1.83075
0.0435632
1.50307
-1.54663
1.42531
-1.42532
-0.146889
-1.67973
1.82662
1.55174
-0.087427
-1.46431
1.123
-1.123
-1.10731
1.10732
1.12629
-1.12629
0.239071
1.24751
-1.48659
1.37512
-1.37512
1.47111
0.0806285
-1.31836
1.31836
0.266995
1.34765
-1.61465
-1.58056
1.58056
0.600085
0.582022
-1.18211
1.94008
-0.514762
-1.25296
-0.220209
1.47316
-1.43053
1.43053
0.706477
1.29334
-0.793461
1.49994
1.4713
-1.76689
0.295585
-1.62204
1.62204
1.0575
-0.818427
1.24661
-1.41528
0.16867
0.964555
-0.964555
1.20525
-1.35214
-2.31669
0.833134
-0.833136
1.01077
-1.0982
1.8439
-1.93134
-1.58998
-0.615221
-0.791789
-0.798186
-0.898066
0.898067
-1.03982
1.08338
1.98145
0.0635281
1.48711
-1.55064
-1.53483
0.134932
1.3999
-1.55064
-0.457552
0.00634761
-1.43688
0.112162
0.211047
0.259754
-1.81039
-1.50714
1.81039
0.53077
-1.21009
2.00188
-1.43689
-0.941674
-0.473604
-1.56285
1.56285
0.897805
-0.390853
-0.506954
-0.814128
0.416212
0.397916
0.703512
-0.112425
-0.591088
-0.00139485
-0.0904682
0.0918628
-0.0587166
-0.0629839
0.1217
0.060775
1.4423
0.853987
-0.793212
-0.00268257
-1.46163
-1.20787
1.20519
-0.0386095
-0.00356572
0.0421752
0.125209
1.0691
-0.792687
0.55551
0.237178
-1.66486
-0.0148663
-0.349061
0.931926
-0.582868
0.416414
0.59328
-1.00969
0.049838
-0.884976
0.835137
0.00904935
0.0657701
-0.0748199
-0.035216
0.00960214
0.0256137
0.0944435
-1.0178
0.923351
0.805031
0.637265
0.710197
-0.609311
-0.100885
1.24511
-0.141631
-1.10348
-0.1628
-1.09293
1.25573
1.53032
-1.69312
-0.0214105
-0.0138056
0.00505388
-0.0436635
-0.935681
-0.729184
-0.0362609
-0.899421
-1.07824
-0.00674712
0.0323596
-0.0256127
-1.31229
-0.14934
-0.442467
-0.869822
0.0111894
-0.803876
-0.802939
-0.678667
-0.605879
-0.328334
0.934211
-1.1999
0.979691
0.000528035
-0.000528041
-1.10205
1.25302
-0.150968
0.250242
0.905065
-1.15531
0.821227
0.0688877
-0.890111
0.015964
0.915961
0.913769
0.901095
-0.47892
0.895335
-0.888576
-0.319296
-1.13102
-0.306759
1.43778
-1.1965
0.25909
0.937412
0.536653
-0.85073
0.314077
1.05594
0.943964
-0.742272
0.754599
-0.0123277
-0.882512
1.05118
0.848195
-0.211749
0.253855
-1.18815
0.934296
-0.98064
-1.03073
-0.284876
0.988388
-0.900185
-1.41651
0.936446
0.309192
-1.24564
-0.0092962
-1.41602
1.14032
-0.20602
1.22331
0.758138
1.07584
0.924098
-0.633278
-1.29806
1.07575
0.171767
-1.10802
-0.872636
-1.85682
0.748806
-1.63698
-0.193765
1.15565
-0.73418
-0.421473
-0.102889
0.804047
-0.701159
-0.954608
0.0847857
0.888832
0.11697
-1.05865
-1.31992
0.421371
-0.91364
0.492267
0.824268
-0.613221
-1.52686
-0.80498
0.331377
0.350672
0.717637
-0.776099
0.0584597
0.809226
-0.697065
0.047635
-0.0385858
0.0376713
-0.0444186
-0.537279
1.02955
-1.23637
0.699086
-0.00111688
0.00111705
0.86374
-0.877728
0.0139875
0.12956
0.000673305
-0.000673036
0.000673375
-1.10169
1.10169
0.860275
0.799699
-0.670141
0.759001
-1.25641
0.497406
-0.720732
0.569765
0.150968
-0.0105355
0.397068
0.456919
-0.566442
-0.236497
-1.55501
1.49737
0.0576451
0.205619
-1.08813
1.53032
0.946259
1.38989
-1.47047
0.0805841
0.00137601
-0.00137585
0.000703052
-1.00496
0.892537
-0.861339
1.16251
-0.301175
0.817072
1.41716
1.29332
-0.711295
-0.638282
-0.371411
0.655037
2.35887
-0.983744
-0.148719
-0.923016
0.230888
-0.643049
0.412161
0.0615023
0.798773
0.285424
-0.876511
1.04458
-0.0648929
-1.18653
0.94812
-0.249034
-0.130125
0.796014
-0.112553
1.2351
-1.35834
1.35909
-0.000750143
-1.04181
-0.504818
-1.53315
-0.767395
0.384929
0.046127
0.628557
-0.674683
1.20982
-0.153882
-0.14852
1.71133
-0.484451
-1.22687
-0.145495
0.756756
-0.406083
-0.624503
-0.226227
-1.40555
1.34217
1.97014
0.00387104
-0.0029311
-0.000939815
0.00154297
-0.00671647
0.00517348
-0.0270138
0.0284314
-0.00141755
0.041547
-0.0219532
-0.0195937
-0.00472103
-0.00483872
0.00955973
-0.00974602
0.00502498
-0.0514712
0.0102501
0.0412222
-0.0167914
-0.106335
0.123127
-0.0048188
-0.00579644
0.0106152
-0.0634484
0.0482134
0.0152348
-0.112446
0.074631
0.0378155
0.0599989
-0.00863843
-0.0513605
0.00715521
-0.00571557
-0.00143961
-0.500466
0.327797
0.172668
0.0188283
0.00154513
-0.0203734
0.00713656
-0.00463155
-0.00250497
-0.0010342
0.00103376
0.00429498
-0.00911377
0.00834333
-0.00562052
-0.00272282
0.0188245
-0.0409039
0.0220795
-0.00852846
0.00657605
0.00195242
0.00445448
0.00268209
-0.0474555
0.00377169
0.0436838
0.0405871
-0.0423175
0.0017304
0.0102149
0.0135539
-0.0237689
0.0348075
-0.0245926
-0.0545264
0.00914053
0.0453859
-0.0398954
0.0565197
-0.0166243
0.00113653
-0.00113655
-0.00607641
-0.00685349
0.0129299
-0.0109151
-0.0537882
0.057778
-0.00398359
-0.0079824
-0.0518414
0.0598227
-0.0369031
0.00722852
0.0296746
0.00274056
0.015965
-0.0187055
-0.00221083
-0.0165787
0.0187895
0.00243749
-0.00243747
0.0150762
-0.0385656
0.0234894
0.0053782
0.0062287
-0.0116069
0.0103027
-0.00113626
-0.00916643
-0.0123567
0.0865476
-0.0741909
0.0649697
-0.0773263
0.0534191
0.0211062
-0.0745253
0.0672714
-0.0138523
0.00674129
-0.00271447
-0.00402682
-0.00258144
0.0459448
-0.0433634
0.0623882
0.00917087
0.00965733
0.018773
0.00504231
-0.0235635
0.0185212
-0.0191074
0.0197264
-0.00061896
-0.00648354
-0.0126239
0.0510884
-0.0490916
-0.0019963
-0.0431513
-0.00683347
0.049985
-0.00736764
0.0038015
0.00356616
0.00953871
-0.00751526
-0.00202341
-0.00970903
0.0328859
-0.0231769
-0.05012
0.0421389
0.00987938
-0.0116485
0.00384033
-0.0076445
0.0038042
-0.0154199
-0.0391064
-0.00144504
-0.00519671
0.00664167
-0.0209678
0.0144842
0.0124375
0.00233284
-0.0147704
0.00596812
-0.0128216
-0.627179
0.298843
-0.0216619
0.0119529
-0.00301404
-0.00145343
0.00446749
0.0218499
-0.0219536
0.00010365
0.00763841
0.0142115
-0.0116463
-0.0100156
0.00331575
-0.0149621
0.00778949
-0.0178051
0.00626287
-0.00865117
0.00238829
-0.00278166
-0.0037439
0.00652557
0.00112727
0.0096458
-0.0107731
0.0474028
-0.0382622
0.00750745
-0.0470415
0.024981
0.0220608
-0.0152532
0.0188236
-0.00357041
-0.003258
0.0161878
0.0112605
-0.00895805
-0.0023024
0.043706
-0.0361985
0.0467413
-0.0030353
-0.0459315
0.00973301
0.0566863
-0.676192
0.619506
0.00515607
0.00438265
-0.00380046
-0.00356717
0.0619496
-0.339051
0.277102
0.17281
-0.501033
0.328223
-0.000415626
-0.00766059
0.00807609
-0.00394648
0.00790632
-0.00395982
0.0245493
-0.0169109
-0.0103999
0.0286063
-0.0182063
-0.0279475
0.0122904
0.0156571
-0.0196523
0.0286415
-0.00898924
-0.0475998
0.040932
-0.00630611
-0.00460904
-0.0157479
0.0235374
-0.00609719
0.00764016
-0.00516326
0.00670838
0.0143485
-0.0366279
0.0500533
-0.0134255
-0.0554661
0.0188382
-0.00168238
0.0196296
-0.0179472
0.00494746
-0.0182796
0.0133322
-0.0639956
-0.0484507
0.263043
-0.586856
0.323812
0.000377837
0.0487349
-0.0491122
0.0514664
0.0400971
-0.376341
-0.124124
-0.0116872
-0.00868629
0.00758347
0.011189
-0.0187725
-0.140463
0.200409
-0.059946
-0.000902185
0.00090211
0.0809044
-0.0305248
-0.0503797
-0.00565286
0.00854103
-0.0028882
-0.0454782
-0.0238917
0.0693695
0.00857747
0.00577107
0.0115638
-0.00657632
-0.00498743
0.00762194
0.0121045
0.0125694
0.00154608
0.0105584
0.183575
0.118434
-0.302009
0.0195063
0.00600799
-0.0255143
0.00190421
-0.0135915
0.463299
0.12545
-0.588749
-0.748724
-0.136252
-0.00418862
-0.0213257
0.0361413
-0.0037817
0.0319526
0.0270815
-0.0218891
-0.00519245
0.0126364
-0.0382493
-0.00771062
0.00140451
-0.00862214
0.000911525
-0.384305
0.48239
-0.0980857
-0.506866
0.494538
0.0241668
0.032353
0.0398239
0.0507946
0.0139971
-0.0647939
-0.0502572
0.0412679
-0.000203875
0.0406994
0.000568548
-0.00609082
0.0442877
-0.0381966
-0.049242
-0.00586577
0.00428826
0.00157751
-0.0684279
0.0229493
-0.00651102
0.0470979
0.0102361
0.00735295
-0.0175891
-0.00855372
-0.0133999
-0.0060469
-0.633627
0.496471
0.137156
-0.0340989
0.0244026
0.00969637
0.000708653
-0.0226389
0.239331
0.236888
-0.47622
0.340208
-0.100877
0.550964
-0.00801274
-0.000945315
0.00155744
0.0096316
-0.00645529
0.0302084
-0.0316033
0.03324
-0.0281862
-0.0597895
0.328231
-0.15633
-0.1719
0.00596643
0.00535061
-0.0113171
-0.00707339
0.00994753
-0.00287406
-0.00624009
-0.0136113
0.0198513
0.00945392
-0.0156941
-0.0115928
0.00513747
0.00103428
-0.0126271
0.0112166
-0.00607914
0.0287162
0.0220507
-0.0507672
0.0314223
-0.00138826
-0.0300341
-0.0111897
-0.0485999
0.0367064
0.000964825
0.0255167
0.00896063
-0.000897579
-0.00806305
0.00332786
0.00563276
-0.0224172
-0.0189324
0.0413497
0.0127208
0.0172409
-0.0299615
-0.00169143
0.00458657
-0.00853308
-0.00501851
-0.0424368
0.0415292
-0.0227046
0.0074452
-0.010406
0.00296083
-0.00982602
0.00792587
0.00190016
-0.0257323
0.0119266
-0.00622036
0.0317369
0.0144801
-0.0167599
0.00227978
0.0204482
-0.0180763
0.923142
0.208993
0.590706
-0.43988
-0.184623
-0.00999663
-0.0067633
0.00518012
-0.0151768
0.00849124
-0.0152546
-0.0486096
0.0106852
0.0379243
0.000396116
-0.0557082
0.0553119
0.00782682
0.0189807
-0.0268075
-0.0213808
-0.00858074
0.0364375
0.00785014
-0.00948643
-0.0328312
0.0269509
0.00782817
-0.00236156
-0.00546661
0.0069943
0.000833902
-0.00792161
0.00556009
0.0189344
-0.0161939
-0.532431
0.59089
-0.512152
0.59564
-0.0834886
-0.00358743
-0.00738532
0.0109728
0.0256371
-0.0843537
0.0326447
-0.0175685
0.00563087
0.0291729
0.0120612
0.00838699
0.0171493
-0.00508816
-0.0144772
0.0228642
0.0731471
-0.0645422
-0.00860199
0.00322984
-0.0192958
0.0160659
0.0204221
-0.0077857
0.0236519
0.325257
-0.336999
0.0117414
0.0021445
0.00941926
-0.0081423
-0.000479835
-0.00599781
0.00893943
0.499822
0.947792
-1.44761
-0.000584166
0.000583433
-0.571045
-0.068162
0.639208
-0.820425
1.32025
-0.0011818
6.50757e-05
0.468041
-0.411355
-1.06756
1.06756
0.130352
0.945484
-0.885303
0.654795
0.230509
-0.406594
-0.478709
1.24169
-0.261333
-0.980362
0.120064
-0.0590704
-0.0609942
-0.527668
-0.105959
-0.104594
-0.423073
-0.819746
0.914187
0.184607
0.311101
-0.495708
0.368183
0.0436684
0.646436
-0.690104
0.481086
-0.437418
0.0721984
-0.0214024
0.602024
-0.6201
0.535625
0.0664001
0.134828
-0.109191
0.484052
-0.234522
-0.249529
0.197999
0.286053
0.00387837
-0.00421254
0.000334193
-1.01591
-0.14479
0.579035
-0.434244
-0.000409259
0.000408954
0.399156
-0.945019
0.545863
-0.554941
0.601069
-0.310048
0.595471
0.0797867
0.0550416
-0.609245
-0.219373
0.828617
-0.0597136
-0.0261934
0.0859068
0.0124855
-0.157672
0.0105014
0.147171
0.64426
-0.702161
0.0929174
-0.328713
-0.373449
-0.693668
0.364955
-0.920532
0.0440978
-1.00135
0.75232
-0.166217
-0.441504
-0.234688
-0.635141
0.408913
-0.132641
0.349748
-0.890909
0.500056
-0.608823
-0.282087
0.00042495
-0.000425005
0.00124481
-0.0043525
0.00310769
1.03792
-0.149084
-0.0128296
-0.672085
0.684915
0.946325
-0.618922
-0.327404
0.337502
0.219633
-0.698553
0.66266
-0.0882131
-0.574446
0.880382
0.738752
-0.315766
0.714922
0.027575
0.0676713
0.0158297
-0.184779
0.224886
-0.0401073
0.220602
0.423658
-1.15601
1.15601
-0.491459
-0.202208
-0.745192
-0.272606
0.822899
-0.322844
0.077707
0.27482
0.193221
-0.00491977
0.00274786
0.00217187
0.794957
-0.531914
0.303498
-0.0246982
-0.0876821
-0.00858771
0.00258989
0.814506
-0.959295
-0.456511
2.01937
1.04086
-0.542651
0.361489
0.181162
-0.267831
-0.32457
-0.333327
0.657898
0.0361546
0.247726
-1.50413
0.864115
-0.616388
-0.0823134
-0.253362
0.335676
-0.267092
1.2021
-0.0592222
0.0438023
-0.038116
-0.608747
-0.211001
1.07432
0.251453
-0.580063
0.328609
-0.832213
-0.58076
-0.803692
0.256009
-1.0597
-0.00953313
-0.0116638
0.0556077
0.0632202
-0.940948
0.709656
-0.000294909
0.000719716
1.22331
-0.683903
1.90722
0.226117
1.0374
-0.811283
0.932807
-0.925797
-0.0901082
-0.288558
-0.291505
0.645653
-0.0186132
0.00413601
-0.0163334
-0.0272281
0.0108946
0.111859
-0.647483
0.721853
-0.0743692
0.29878
-0.607659
0.989122
-0.381462
-0.0286238
0.785883
1.03576
-1.18125
0.00630171
-0.628601
0.266734
-0.142175
-0.00353792
0.0264021
0.042731
0.182155
-0.0664603
1.26971
0.210406
0.848239
0.0405449
-0.0473781
-0.00854683
0.0100743
-0.0977565
-0.0742794
-0.14074
-0.0223679
-0.0609539
0.419071
-0.49344
0.509007
-0.0899365
0.349532
0.159475
0.423266
-1.3414
0.158539
0.0395152
-0.485061
-0.157988
-0.445546
0.577879
0.0416275
-0.444375
0.286387
-0.0977337
-0.346641
-0.351096
1.13945
0.130745
0.82855
-0.697804
0.567217
-0.000401033
-0.000183325
0.00512316
-0.785139
-0.457342
-0.593595
0.022048
1.3954
0.7115
-0.758975
-0.00710533
0.00850745
-0.00140211
0.00257281
-0.00967814
0.00152931
0.00447856
-0.00600787
-0.00589195
-0.00665068
0.0125426
-0.152446
0.264495
-0.112048
0.00643944
-0.00537443
-0.00106502
0.00690681
-0.00152764
-0.00537917
-0.00621001
0.00391315
0.00229685
-0.0052502
0.00439366
0.000856531
-0.0139076
0.0135284
0.000379209
0.0113573
-0.00289806
-0.00845916
0.00195313
0.00940412
-0.0162052
0.00488739
0.0113178
0.00664433
-0.00217812
-0.00446621
0.00310309
0.00354124
-0.0128601
0.00370158
0.00915847
0.00648369
-0.0193438
-0.00369419
-0.00395826
0.00765245
-0.00748103
-0.00127707
0.00875809
0.00275825
0.00776154
-0.0105198
0.0041766
0.00292272
-0.0070993
0.00504755
-0.00872608
0.00367854
0.00900976
-0.00933808
0.000328334
0.00248918
0.00652059
-0.00759868
0.0050938
0.00250488
-0.00495836
-0.00264033
0.0020665
-0.00632009
0.00425359
-0.00144514
0.00853654
-0.00709139
-0.00210116
0.00367671
-0.00157546
-0.0032718
0.00189152
0.00138027
-0.00402076
-0.00340958
0.00743024
0.00561829
-0.0096391
-0.00323368
0.0097934
-0.00655971
-0.00652258
0.00197644
0.00454614
-0.0013814
-0.00514118
0.00323264
-0.00752843
0.00429578
0.00270076
0.00468514
-0.00738585
0.00659064
-0.00680966
0.000219025
0.00332339
-0.00285765
-0.000465732
0.00302917
0.00295023
-0.0059794
0.0045847
-0.00575036
0.00116566
-0.00629484
0.00260065
0.00925825
0.000534037
-0.0097923
0.00508651
0.00417167
0.00306299
0.00742198
-0.010485
0.00743106
-0.00852125
0.00109018
0.010521
-0.00131149
-0.00920948
-0.010444
0.00104841
0.00939565
-0.00892819
-0.00135852
0.0102867
-0.00408582
0.00615231
0.00685539
-0.0102481
0.0033927
-0.0125752
-0.00133238
-0.00648999
-0.00608521
-0.0253046
0.0210632
0.00424134
-0.0101828
-0.330975
0.341158
-0.00759866
0.00385144
0.00374721
-0.00508083
0.00651856
-0.00143772
0.182964
-0.193147
-0.00465063
-0.00494221
0.00959285
-0.00995282
0.0021372
0.00781561
-0.00204575
-0.00790706
0.0189891
-0.00544191
-0.0135472
-0.00702962
0.0260187
0.00699841
-0.0020041
-0.00499433
0.00269946
0.00429895
-0.00606866
0.00976493
-0.00369626
0.00507378
-0.00813965
0.00306587
0.00843597
-0.00533287
-0.00103954
0.0105241
-0.00948454
0.00438263
-0.0057269
0.00134428
0.0100732
-0.0123796
0.00230646
0.00885415
-0.00885432
0.00256799
0.0148667
-0.0174347
-0.0105535
0.00530059
0.00525295
-0.00800047
0.00265179
0.00534868
0.00841839
-0.00841841
0.00740493
-0.00740491
0.00190769
0.00722528
-0.00913298
0.0341274
-0.0153843
-0.0187416
-0.00360442
-0.00542767
0.0090321
0.00693977
-0.00628211
-0.000657649
-0.0223868
0.00682676
0.0155601
0.0100329
-0.0324197
0.00292305
0.00432346
-0.00724652
0.00488028
0.00227493
-0.00330691
-0.00461468
-0.00256219
0.0149997
-0.00373165
-0.00619633
0.00992799
0.00671866
-0.00421857
-0.00250011
-0.00544635
-0.00185238
0.00729873
-0.0114301
0.0045329
0.00689724
-0.0111056
0.00666397
0.00444159
-0.004199
0.00678566
-0.00258665
0.000289607
-0.00448861
0.0124079
-0.0101541
-0.00225387
0.0103197
0.000993589
-0.0113133
-0.00742081
-0.00100671
0.0084275
-0.00436367
-0.00305715
-0.00261736
-0.00647045
0.00908781
0.00216196
-0.00627834
0.00411638
-0.0002846
0.00738724
-0.00710256
-0.00136756
0.00737241
-0.00600481
-0.00375349
-0.00380444
0.00755793
0.00815613
-0.00427459
-0.00388153
-0.0119988
-0.00141834
0.013417
0.0119008
-0.00655134
-0.00534948
0.00483574
0.00638328
-0.011219
-0.00733095
0.00664427
0.000686717
-0.00673855
0.00653698
0.000201578
-0.00653764
0.0110252
-0.00448758
0.00653201
0.000190584
-0.00672259
0.0069258
0.000112502
-0.00703831
0.00816503
-0.00235091
-0.00581414
0.00184011
-0.00658995
0.00474985
0.00120575
-0.00665405
0.0054483
0.00566024
-0.00154166
0.00624028
-0.00469862
-0.00717717
0.00100457
0.00617261
-0.0175207
0.024565
-0.0070442
0.00169327
-0.00542439
0.00373112
0.00300592
0.00511969
-0.00812561
-0.00658274
-0.0042913
0.010874
0.00332244
-0.00990517
0.00654597
-0.000833013
-0.00571296
0.0083309
-0.00178493
0.0206537
0.0134738
0.0048243
0.0039052
-0.00872951
0.0107687
-0.00992385
-0.000844822
0.00948154
-0.00948139
0.00564069
0.00370147
-0.00934217
-0.00600131
-0.00153285
0.00753416
0.013155
0.0258794
-0.0390344
-0.00344567
0.00811595
-0.00467029
0.00193392
0.00568778
-0.0076217
0.0156723
-0.012767
-0.00290527
-0.00486307
0.000922109
0.00394099
0.00732324
0.0039309
-0.0112541
-0.00261748
0.00601346
-0.00339599
0.00646596
0.0047153
-0.0111813
0.00105266
0.00526877
-0.00632142
-0.00189261
-0.00675198
0.00864459
0.000295002
0.00638923
-0.00668423
-0.0286784
0.0448241
-0.0161455
0.0337167
-0.0623951
-0.0076887
0.00171435
0.00597434
-0.00383866
-0.00385004
-0.00876428
-0.00294659
0.0117109
0.00935904
-0.00518796
-0.00417108
-0.0112583
0.00579227
0.00546601
-0.00699514
0.0101113
-0.00311615
0.00149544
-0.00630033
0.00480488
-0.00312949
-0.00286115
0.00599064
-0.00784333
0.0014508
0.00639254
0.00135824
0.00197244
-0.00333066
-0.00332142
-0.00192878
-0.0020665
-0.00532874
0.00739524
0.0087489
-0.00835707
-0.000391833
0.0090234
-0.0116408
0.011521
-0.00819318
0.00100842
0.00391922
-0.00492763
0.00658644
-0.00557801
-0.024842
0.031761
-0.00691901
-0.0187538
-0.00608817
0.0011393
0.00632537
-0.00746467
-0.00787898
0.00787748
1.48197e-06
-0.00470144
-0.00317754
0.010272
-0.00698652
-0.00328545
0.00640172
-0.0113601
0.00129862
-0.00795756
0.00665894
-0.00407054
0.00713353
0.00569579
-0.00976632
-0.00739379
-0.00524733
0.0126411
-0.00774817
-0.00327904
0.0110272
-0.0124343
0.00596383
-0.00725182
0.00349834
0.00161953
0.00401914
-0.00563867
0.00499384
-0.00556982
0.000575978
0.00295284
0.002041
-0.000923982
0.00712253
-0.00619853
0.00492843
-0.00630983
0.02652
-0.00194839
-0.0245715
0.0403613
-0.0138412
-0.0315683
-0.00699729
0.00970662
-0.00921314
-0.000493485
0.00781402
0.00777001
-0.00562639
-0.00214364
0.00156
-0.00991017
0.00428377
0.00140325
-0.0166564
0.00653011
0.00238624
-0.00891635
-0.0086866
0.00916166
-0.000475065
-0.00638814
-0.00109907
0.00748721
0.00432557
0.00625436
-0.0105799
0.00737049
-0.00609148
-0.00127907
0.00411252
0.00231384
-0.00642639
-0.0196036
-0.0253977
0.0450014
0.00606781
-0.00951348
-0.00474299
0.0108705
-0.00612747
-0.00737207
0.00202409
0.00534797
-9.06111e-06
-0.00860487
0.00861395
0.00910291
0.00067376
-0.0097767
0.00315254
0.00375151
-0.00690405
0.00749489
-0.0108737
0.00337883
0.00646252
0.000544674
-0.0070072
0.130617
-0.0469363
-0.0836804
6.07112e-05
0.00810431
0.0069865
0.0113752
0.00419214
-0.0155674
-0.00564051
0.011319
-0.00567851
0.00179523
0.00611013
-0.00790535
-0.00841757
0.0038169
0.00460068
-0.00143762
-0.00589331
-0.00860904
0.0181848
-0.00957575
-0.00272373
-0.00538519
0.00810892
-0.00235195
0.0103983
-0.00804633
0.00530758
0.00720459
-0.0125122
0.00824943
-0.00874618
0.000496748
0.0100046
-0.00805144
0.0101137
-0.00627582
-0.00383787
0.00212728
-0.00900874
0.00688145
-0.00497123
0.00709851
0.000656135
0.00561094
-0.00626706
0.0103414
-0.00503384
0.00461388
0.00466533
-0.0092792
0.00527815
0.00297128
-0.00415731
0.00943547
0.0101759
-0.00585605
0.00855552
0.00777578
-0.00454314
-0.00164372
0.00810969
-0.0103943
0.00716061
-0.0206976
0.00422986
0.0164678
-0.0123855
-0.00831213
-0.0103921
0.00855412
0.00183795
-0.0101251
-0.000267046
0.000274259
0.00479401
-0.00506827
0.00247612
-0.00814202
0.00566585
0.0318258
0.0226005
-0.054427
-0.032516
-0.0188445
-0.00069
0.00231646
0.00314686
-0.00546332
0.00577852
0.000660915
-0.00498919
0.0126511
-0.00766187
0.00190338
-0.00705694
0.00515356
-0.0106033
0.0066635
0.00393979
-0.00822517
0.00279722
0.00542796
-0.0064221
0.0068843
-0.000462204
0.00332123
0.0140973
-0.0174186
0.00980493
0.0071107
0.00698661
-0.00546914
0.0112045
-0.00573543
-0.00839156
-0.00250707
0.0108986
-0.00409297
-0.00450363
0.0085966
-0.00111974
-0.00722951
0.00834926
0.000884366
-0.00851651
0.00763215
0.00662554
-0.00897643
0.0165923
-0.00547567
-0.0111167
0.00943941
0.00516437
-0.0146038
0.00811948
-0.0328481
0.0247288
0.000966053
-0.00968005
0.008714
-0.00601614
0.0119828
-0.00596663
0.00933142
-0.00126597
-0.00806547
-0.00135072
-0.00764939
0.0090001
0.0105732
-0.00865577
-0.00191745
0.00164502
0.000880056
0.00247645
-0.00335648
0.0134698
-0.00403042
0.00606441
0.00740541
0.0125619
0.00177055
-0.0067227
0.00495214
-0.00710957
0.00791881
-0.000809245
-0.00227569
-0.00483388
0.0007474
-0.00969894
0.00895154
0.00927018
-0.00410581
-0.00119941
-0.00967971
0.0108791
-0.00937179
0.00817238
-0.00596106
0.00962035
-0.00365928
-0.00578627
-0.00262565
0.00841191
-0.0169688
0.0120159
0.00495298
0.0108986
-0.0140856
0.00318688
-0.0364615
-0.0150094
0.0737008
0.056916
0.0119406
-0.00349288
-0.00844775
0.0181035
-0.0130612
0.00967
0.0084555
-0.0181254
0.00994887
-0.00880956
0.00114869
0.00880018
-0.00773342
0.00888213
-0.00438614
-0.00700052
0.0113867
-0.00422329
-0.00387227
0.00809554
-0.0379893
0.0219852
0.0160039
0.032639
-0.0307036
-0.00193552
-0.00181958
-0.00200495
0.00382455
-0.0361055
0.0245865
0.011519
0.00507235
-0.0252271
0.0201549
0.000531214
-0.0108292
0.010298
0.00129704
-0.0113576
0.0100605
-0.0134259
0.00653658
0.00688928
-0.0048095
0.00723282
-0.00242332
-0.00537852
0.0102143
0.00652231
-0.0023486
0.00768956
-0.00534097
0.00267033
0.00554983
-0.00822016
-0.0062667
-0.00160908
0.00787581
0.00440849
-0.00799433
0.0035858
-0.00275721
0.0122758
-0.00951857
0.00769809
0.00632946
-0.0140275
-0.00263559
-0.00728686
0.00992246
0.00632459
-0.00971208
0.00338749
0.00584951
-0.00536451
-0.000485
-0.002437
-0.00507825
0.0034125
-0.00729567
0.0070111
-0.00763701
0.00838443
-0.00888819
0.00203792
0.00685029
-0.00829412
0.00965645
-0.00136233
-0.00740976
-0.00320673
-0.00922754
-0.0109549
-0.00299848
-0.00668123
-0.00953613
-0.00072612
-0.00595511
0.00615032
-0.00811792
0.00196762
0.00862645
0.000978069
-0.00635249
0.00837668
-0.00948844
0.00111175
0.00100488
0.00737181
-0.0113887
0.00292533
0.00846338
-0.00559753
-0.00530834
0.0109059
-0.0203881
0.0111377
0.0092503
-0.0140378
-0.00635028
-0.00467468
0.0100928
-0.00541812
0.00592268
0.00559251
-0.0115151
0.0014974
-0.00737569
0.0058783
0.0258852
0.00700074
0.0309575
0.139986
-0.238072
-0.19099
-0.00266801
-0.00612197
0.00878997
-0.00622843
0.00356042
-0.00512914
0.0108821
-0.00575302
-0.00174656
0.00366846
-0.00192191
0.0171655
-0.0137974
-0.0033681
0.00159397
-0.0062255
-0.00852594
-0.0313891
0.0399151
0.0302005
-0.0387263
0.0106072
-0.019219
0.00861186
0.00435336
0.00542214
-0.00977551
0.0200093
-0.0113929
-0.00861642
-0.00945111
0.0170928
-0.00764167
-0.0133615
0.026292
-0.0129305
0.0150699
0.0328933
-0.00660127
0.00412663
0.00401562
-0.00814225
0.0179291
0.023618
0.0401275
-0.0226461
-0.0174813
0.00914007
-0.0117557
0.00261565
-0.00880042
0.00900994
-0.000209517
-0.0236619
-0.00156518
-0.011709
-0.0181732
0.0166079
0.01646
-0.0128189
-0.00364107
-0.0266603
-0.0316895
0.0583491
-0.0580961
0.0328163
0.0252792
0.0158523
-6.24559e-05
-0.0157898
-0.00779508
0.0036479
0.0041472
0.00293797
-0.00465492
0.00171695
0.00274973
0.00252866
-0.00527839
0.0056877
0.00599749
-0.00205836
-0.00393913
0.00406918
-0.00543674
-0.00415599
0.00357179
-0.00763415
0.00406239
0.0073733
-0.00972238
0.00930373
0.000418646
-0.00534565
-0.00437673
-0.0026091
-0.00591499
0.00852409
0.000552167
0.00735898
-0.00791116
0.00831378
-0.00776161
-0.00241676
0.0114402
0.00910427
0.000187824
0.00609534
-0.00628317
-0.00539428
0.00558213
0.011262
0.00283071
-0.0140927
-0.00423235
-0.0132884
-0.0104576
-0.002625
-0.00684635
0.00947135
0.0047821
-0.0074071
-0.000470666
-0.00637569
0.00193104
-0.0103269
0.00839584
0.00326955
0.00589224
-0.00916178
0.0100334
-0.00370876
-0.00457297
0.00495625
-0.000383308
0.00833351
-0.00357535
-0.00475815
-0.00705327
0.00705337
-0.0152443
-0.0204276
0.0356718
-0.00764867
0.00775992
-0.000111262
-0.00371522
-0.0025132
0.0258448
0.00455299
-0.0303977
0.0142104
0.0116344
-0.0211624
0.0257154
0.0056831
-0.00370988
-0.00197322
-0.00152142
-0.00473602
0.00625744
0.00416168
-0.00768174
-0.00374841
0.00998922
0.00647079
-0.00169241
0.0116817
-0.00804772
0.0145185
0.0103989
-0.000144806
-0.0102541
0.0056825
0.00471638
-0.0138698
0.013725
-0.00469376
0.00659715
0.00471861
0.00590731
-0.0106259
-0.00638695
-0.00293345
0.00946356
-0.00175906
0.00409126
-0.00233215
0.00243807
-0.0063323
0.00389423
0.0150793
0.00203962
-0.017119
0.0046481
-0.0116798
0.00703171
-0.00386887
-0.00318903
0.00705794
-0.00506595
0.0051518
-8.58342e-05
-0.048032
0.0681348
-0.0201028
0.00502233
-0.00862674
0.00900868
-0.00200795
-0.00700074
0.000617117
0.0502578
-0.0410836
-0.00917442
0.00493784
0.00284971
-0.00778755
0.00677831
-0.00184049
0.00810905
-0.00525932
0.00926478
-0.0216503
-0.0455483
0.0274942
0.018054
0.0386051
-0.0144145
-0.0241906
-0.0197199
0.0231739
-0.00345392
0.0190542
0.000492519
-0.0195467
0.00869052
0.00483787
0.00998757
-0.00705876
0.0118966
-0.0267812
0.0122009
0.0145802
0.00905182
-0.00905436
2.52794e-06
0.00445542
0.00459639
-0.00623974
-0.00318435
0.00942409
0.00463938
0.00496793
-0.00912525
-0.00178323
-0.00512344
0.00690668
-0.0082803
0.00433517
0.00394511
-0.0100635
0.00335992
-0.0106981
0.00733819
-0.00920479
0.00768426
0.00152053
-0.00584487
0.00501312
-0.00831699
0.00330372
0.00222662
-0.00902062
0.006794
-0.00314856
0.00314835
-0.00236704
0.00860207
-0.00623505
0.00350233
0.00537231
-0.00887463
0.0204189
0.0197085
0.00200469
0.00824652
-0.0102512
-0.00308904
0.00308905
0.00429109
0.00405223
-0.00268416
0.00697525
-0.00853515
0.0104662
0.00115068
-0.00710617
0.00595553
0.00695401
-0.00152028
-0.00543372
0.00810469
0.00330718
0.00298503
-0.00629221
-0.0029465
0.0062652
-0.00331869
-0.00620786
0.00565623
0.00055164
0.00658272
-0.000788544
-0.00579419
-0.0060727
-0.00542736
0.0115
-0.010364
0.00162802
0.00420277
-0.00583079
-0.00812245
0.0209274
-0.0128049
0.0013528
0.00557252
-0.00692532
0.0067935
-0.00544069
0.00231799
-0.00231829
0.00846623
0.00233093
-0.0107972
0.0047227
0.00374353
-0.00570448
0.00803543
0.00970836
-0.00870348
0.00210906
0.00699385
0.00896445
0.0069848
0.00937394
-0.00658817
-0.00278577
0.00122811
-0.00892226
0.00769413
0.00867724
-0.00744913
-0.00114533
0.00698732
-0.00584198
0.00460342
-0.00574876
0.00456997
0.00134289
-0.00591286
0.0181191
-0.016558
-0.00156105
-0.00866794
0.0197792
-0.0111113
0.0280584
-0.0122385
-0.0158199
0.0271632
0.000895209
0.0206548
-0.00863104
0.00191457
-0.00117885
0.00815439
-0.00697553
0.00618894
-0.00725096
0.00106203
0.0103147
-0.00798189
0.00300742
-0.0104012
0.0133222
0.00219758
-0.00219772
0.00502354
-0.00642405
0.00140048
-0.00605616
0.00821812
0.0089205
-0.0109662
0.0224435
-0.00928845
0.00795426
-0.0237742
-0.0330627
0.00930918
-0.00355959
-0.00574957
0.00157576
-0.00922001
-0.000919575
0.0101396
-0.0106044
0.010011
0.00059351
0.0323026
5.04747e-05
-0.00490483
0.00490477
-0.00551544
0.00580505
-0.00622433
0.00468267
-0.0307802
-0.00157509
0.0323552
-0.012301
-0.0184792
0.0316586
-0.0332337
0.00672807
-0.00672825
-0.0171219
-0.00888695
0.0260089
-0.0246735
0.015309
0.00936453
0.00153798
-0.00153806
0.00395547
-0.00395551
0.00668756
-0.00106932
0.00333965
0.00285171
-0.00619137
0.00495918
0.00454498
0.0053287
0.00134034
-0.00666903
0.00131289
0.00490416
-0.00621704
0.00106573
0.00585676
-0.00692249
-0.0380794
0.0209576
0.00346962
0.00329554
-0.00676516
0.006239
-0.00779809
0.0015591
-0.00437271
0.00670125
-0.00232853
0.00186629
0.00653955
-0.00536446
-0.00117509
0.0033091
0.00323045
-0.00718681
0.00106487
-0.00275979
0.00275992
-0.0218974
0.0407999
-0.0189025
-0.0323395
0.0102422
0.0220973
-0.0287979
-0.00354166
0.0349153
-0.0246732
0.0064581
-0.00192519
0.00101174
-0.00682132
-0.00487324
0.0116946
-0.0118105
0.00769318
-0.0125664
0.0211657
-0.0138717
-0.00729398
0.00019793
-0.031855
0.0179834
0.00806069
-0.00394816
-0.0022284
0.00222837
0.00768355
-0.0147423
-0.0100348
-0.00257984
0.0126146
0.0255698
-0.0333068
0.00773704
-0.0114847
0.0370546
-0.00228816
0.00769244
-0.00540426
-0.00886961
0.00658144
-0.0033139
0.00748083
-0.00416689
0.00434625
-0.00637526
0.00202907
-0.011722
0.0122532
-0.00695907
0.00159462
-0.00235565
-0.00624872
0.00030002
0.00853845
-0.00883846
0.00686758
-0.00656755
-0.0158526
0.0170093
-0.00115672
0.00595828
-0.0154446
0.00948625
0.00757693
-0.00958487
-0.002695
0.00269495
0.00106352
-0.00106352
0.0160625
-0.0131494
-0.00291307
0.00720087
-0.0064662
-0.000734665
0.00879988
-0.00159902
-0.00700454
0.00157689
-0.0033174
-0.00368712
-0.00795368
0.00408481
-0.00349525
-0.00656829
-0.00819669
6.83137e-05
-0.00542657
0.00535826
-0.0377256
0.015479
0.0222465
-0.0285588
-0.00754677
-0.000109244
-0.00631285
0.00634539
0.000237331
-0.00304918
-0.00483016
0.00787935
0.0037792
0.00981509
-0.0135943
0.00751472
0.00305842
-0.0105731
0.0039129
-0.00599308
0.00208018
-0.000582514
0.00449542
-0.00262739
0.00800559
0.00767529
6.76348e-05
0.0142134
-0.0142811
-0.015785
-0.00167769
0.00167744
0.000192202
-0.0018701
-0.0131424
0.00766672
-0.00493135
0.0062639
-0.00133255
0.000154866
-0.00508621
0.0015617
-0.0015618
7.31112e-05
-0.00526065
0.00518754
-0.00423576
0.00655222
0.0074309
-0.00701819
-0.000412712
-0.0252462
0.0297259
-0.00447951