/*--------------------------------*- C++ -*----------------------------------*\
  =========                 |
  \\      /  F ield         | OpenFOAM: The Open Source CFD Toolbox
   \\    /   O peration     | Website:  https://openfoam.org
    \\  /    A nd           | Version:  6
     \\/     M anipulation  |
\*---------------------------------------------------------------------------*/
FoamFile
{
    version     2.0;
    format      ascii;
    class       volVectorField;
    location    "500";
    object      U;
}
// * * * * * * * * * * * * * * * * * * * * * * * * * * * * * * * * * * * * * //

dimensions      [0 1 -1 0 0 0 0];

internalField   nonuniform List<vector> 
29874
(
(7.55064 0.0621264 1.08236e-16)
(5.40734 0.0279806 -9.99565e-17)
(5.42456 -0.121055 1.92741e-16)
(7.11071 -0.079599 -1.11236e-16)
(7.83381 -0.120013 0)
(7.44977 0.00501381 -9.7406e-17)
(4.78697 0.094506 7.6065e-18)
(7.12406 0.0173569 3.07742e-18)
(7.44921 -0.00379002 -1.18487e-17)
(7.19177 0.211852 -1.67882e-17)
(7.22479 -0.116041 0)
(7.2556 0.104229 -3.58524e-17)
(4.45879 -0.0541459 9.29815e-17)
(8.29512 0.0495131 0)
(6.73642 0.203198 1.06577e-16)
(6.61981 0.137174 0)
(4.26906 -0.0200997 0)
(7.8176 0.211792 -1.39314e-16)
(4.9618 -0.0408197 -1.39851e-16)
(7.9952 -0.0691906 -4.55594e-18)
(7.11892 -0.0228796 3.65431e-17)
(7.07131 -0.0255296 2.95821e-18)
(7.0337 0.0614555 -1.04387e-16)
(7.52554 0.0382994 0)
(5.75491 0.294521 0)
(7.78696 -0.0119166 -2.57685e-17)
(7.9847 -0.0437958 -8.99876e-17)
(5.06391 0.120674 1.3278e-16)
(5.33862 0.122186 1.75928e-17)
(4.95456 -0.11845 4.74177e-17)
(8.0836 -0.0950289 -2.80209e-17)
(5.35153 -0.0981211 -2.6885e-16)
(7.86662 0.0543909 0)
(5.19483 -0.0359967 -9.09505e-17)
(7.38632 0.133219 3.5858e-17)
(5.47775 0.109887 -2.39647e-17)
(7.03772 -0.000461914 0)
(7.28394 0.315021 -4.93e-18)
(7.51457 -0.111368 -6.97267e-17)
(5.35382 0.02059 0)
(7.00039 0.0105362 -4.38698e-17)
(7.02983 -0.0190191 8.9409e-17)
(7.30932 0.00878833 0)
(5.62808 0.0461219 -1.54931e-17)
(8.04128 -0.134643 8.25597e-17)
(7.43282 0.0400793 0)
(4.75897 -0.150238 0)
(8.50824 0.0389674 0)
(7.27677 -0.0613192 4.25535e-18)
(7.18994 -0.114418 -6.04076e-17)
(4.49667 0.141306 -9.1261e-17)
(7.89642 -0.0998085 0)
(6.7893 -0.000966699 -4.49384e-17)
(6.61795 0.0700987 3.93812e-17)
(7.68496 0.156964 -1.85961e-17)
(7.72986 -0.0105499 5.2559e-17)
(4.68887 -0.0788162 0)
(8.14864 0.0337468 0)
(7.12488 -0.062946 0)
(7.04688 0.0846957 -6.7285e-18)
(7.27141 -0.129137 1.48253e-18)
(7.23622 0.0163594 -7.96658e-17)
(7.22184 -0.232064 -1.50146e-18)
(7.48455 0.0152468 0)
(5.81259 0.0538667 -3.93711e-17)
(7.46086 0.0324198 -4.09392e-17)
(7.75301 0.138826 -2.24808e-20)
(7.60472 0.00106683 8.05828e-17)
(7.65407 -0.0960768 4.34701e-17)
(7.5109 -0.0826246 4.16154e-17)
(8.25119 -0.138524 3.37123e-17)
(7.61436 0.0180083 4.62568e-17)
(7.53143 0.104146 -3.31411e-16)
(5.65329 -0.132957 4.11019e-16)
(7.0517 -0.129714 3.87484e-17)
(8.08441 0.121697 0)
(7.82145 -0.109696 -1.68106e-17)
(8.02169 -0.0994459 1.69454e-17)
(4.99692 0.109682 6.61145e-16)
(7.35171 0.0920883 -1.89226e-16)
(5.39591 -0.0940487 -9.46359e-17)
(7.1242 -0.152822 1.30836e-18)
(6.96698 0.159955 0)
(7.44121 0.199654 -3.61296e-17)
(4.5754 -0.367905 0)
(5.03506 -0.225916 -4.14937e-17)
(7.36421 0.01078 -2.05293e-18)
(7.03683 0.0438006 2.62874e-17)
(7.9569 -0.106977 9.64334e-17)
(7.55997 -0.0660632 5.17118e-17)
(3.7968 -0.694902 -4.47183e-18)
(7.00402 0.0805658 5.1719e-17)
(6.95512 0.13585 -2.99074e-17)
(7.47947 -0.0370891 2.81242e-17)
(7.23357 -0.131157 0)
(6.67814 0.102382 0)
(7.11408 -0.239521 -1.97778e-17)
(4.59677 -0.00654496 9.01018e-18)
(3.48714 -0.56597 -2.18342e-17)
(6.4303 -0.058637 1.24675e-17)
(7.52591 0.051909 -1.02334e-18)
(7.02027 0.0968194 1.45342e-17)
(6.99007 0.092794 0)
(7.3483 0.0827523 -8.53165e-17)
(7.09807 0.0910744 -6.37776e-17)
(3.52494 -0.398726 4.00627e-17)
(3.9145 -0.512325 -3.05481e-17)
(7.5159 0.00425207 5.97181e-18)
(7.60334 0.0101596 0)
(7.26638 -0.134933 -9.01219e-18)
(3.86133 0.123579 -2.75529e-17)
(7.95989 -0.172011 8.495e-17)
(8.01929 -0.173212 -9.10127e-17)
(6.96725 0.123594 0)
(6.97355 0.137056 0)
(6.98301 0.105621 -6.05279e-17)
(6.88066 -0.324131 8.76846e-18)
(7.23443 -0.194162 1.09464e-16)
(0.313433 0.0606251 -8.50473e-17)
(7.04061 0.0872756 2.62466e-17)
(6.97208 0.13454 4.5588e-17)
(8.25051 -0.197332 -1.23519e-16)
(7.22625 -0.107964 -1.22837e-19)
(7.15923 -0.139008 4.85591e-18)
(7.28042 -0.135883 7.27863e-18)
(6.64029 0.164418 -4.67084e-18)
(7.48444 -0.142585 0)
(7.20356 0.232787 -2.14506e-17)
(7.01857 0.112862 -5.25043e-17)
(6.54915 -0.287508 4.36142e-17)
(6.99952 0.00715636 0)
(6.74674 -0.279505 3.11634e-17)
(7.13398 -0.1313 -5.4703e-17)
(7.07829 0.0964259 1.07054e-16)
(7.28791 0.118369 4.69212e-17)
(7.10914 0.0581035 -3.50572e-17)
(7.25273 0.119159 8.03342e-17)
(7.04872 0.0090754 -9.78484e-18)
(7.35839 0.279458 7.7201e-19)
(7.12075 -0.162391 6.00991e-17)
(7.7208 -0.267635 -7.27967e-18)
(7.7785 -0.0424082 0)
(7.03661 -0.195676 -1.35794e-17)
(7.47176 0.266522 -2.45999e-17)
(7.20953 -0.0556857 -6.22102e-17)
(7.14525 0.189188 -8.46782e-18)
(7.35941 0.033436 4.36743e-17)
(7.32108 0.0720508 5.93105e-17)
(7.0035 0.00667856 -3.13647e-18)
(6.64466 0.124171 -5.47644e-18)
(7.8111 0.0921787 3.35889e-17)
(7.88944 -0.1129 9.47488e-18)
(6.49577 0.197362 0)
(6.92934 -0.0935158 1.48336e-17)
(7.4071 -0.0748245 2.45565e-17)
(7.02382 0.0614743 4.11287e-17)
(7.0626 -0.0177937 2.37e-17)
(7.71097 -0.185917 -3.71273e-17)
(7.94558 -0.0952585 3.88176e-18)
(7.96675 -0.131108 0)
(7.71849 -0.137124 -7.09716e-17)
(7.22303 0.0978946 2.00182e-16)
(6.89598 0.14822 -6.52341e-16)
(7.66657 -0.17672 0)
(7.7777 -0.180639 0)
(7.76314 -0.160878 7.26803e-18)
(7.69969 -0.1741 0)
(7.16741 -0.0768581 0)
(7.05572 -0.0217116 -6.08456e-17)
(7.50841 -0.191324 2.27096e-17)
(7.76477 -0.114438 0)
(7.68582 -0.164703 0)
(7.59922 -0.128528 -1.27312e-17)
(4.36155 -0.0222026 -3.76989e-17)
(4.05102 0.0969946 7.39218e-18)
(7.50833 -0.145841 0)
(7.31936 -0.173251 1.81682e-17)
(1.21128 -0.100247 -4.39804e-17)
(6.92845 0.0239757 -1.65053e-16)
(6.77668 -0.0251041 8.42428e-17)
(1.16676 -0.0800125 0)
(1.14857 0.0243479 0)
(5.006 -0.078562 -1.84197e-17)
(6.91313 0.119645 -3.48536e-17)
(6.56697 -0.0378448 1.60478e-18)
(8.25345 0.059421 -3.70173e-17)
(7.03023 0.134328 -1.33888e-17)
(7.01973 0.11575 -8.92382e-19)
(7.03582 0.0833959 1.18229e-18)
(6.98252 0.128799 2.28516e-17)
(6.985 0.10153 1.66581e-17)
(8.34554 -0.125343 1.04198e-16)
(6.88946 -0.134881 8.23209e-17)
(6.70669 -0.224209 -4.3554e-17)
(5.19048 0.0266521 -5.40012e-17)
(7.07348 0.0721515 2.46227e-17)
(7.03366 0.099671 5.22449e-17)
(7.61839 0.16235 0)
(1.23633 0.0117163 6.64762e-17)
(1.59139 0.0129581 0)
(7.74371 0.199115 6.80593e-18)
(8.09922 -0.0732623 0)
(7.627 0.448599 -1.70231e-17)
(7.59259 0.281159 -1.50573e-16)
(6.96691 0.0936812 0)
(6.78441 0.118375 5.07933e-17)
(6.88918 0.0944694 7.51908e-17)
(7.38552 0.0852347 3.33074e-16)
(7.08871 -0.191763 -6.13381e-17)
(6.882 -0.26236 -3.3327e-17)
(7.11517 -0.00784539 4.77528e-17)
(7.30538 0.0303141 -3.29011e-17)
(6.35006 -0.140512 -6.79448e-17)
(6.79436 0.0923944 -1.49096e-16)
(7.27839 0.220605 2.91645e-17)
(7.1793 -0.225721 -5.48033e-17)
(7.27359 -0.19485 -5.19842e-18)
(7.21642 -0.165127 -2.66855e-17)
(7.29368 -0.140439 1.68685e-17)
(7.46724 -0.145727 0)
(7.6795 -0.00080329 -9.98583e-17)
(8.30792 -0.0661344 -3.15028e-17)
(6.89056 0.0115221 6.02472e-17)
(7.41744 -0.0551725 -4.47807e-18)
(7.00097 0.0550984 -7.09101e-17)
(7.31867 0.0545151 0)
(7.60298 -0.0152327 4.47432e-18)
(7.45423 -0.122287 -4.44036e-18)
(7.80245 0.169168 -2.68121e-17)
(6.98921 0.237678 -2.14454e-17)
(7.00357 0.0235433 0)
(7.00139 0.0456667 5.80205e-17)
(7.42187 -0.0870403 -1.29032e-17)
(7.27329 -0.0598315 1.20002e-17)
(6.78995 -0.0987536 4.41967e-17)
(6.91968 -0.0900152 0)
(6.48529 -0.249711 0)
(7.78632 -0.113848 -2.10235e-17)
(7.60973 -0.132614 8.86157e-18)
(7.84027 0.0772747 -8.22693e-18)
(8.03692 -0.0783723 5.90661e-17)
(2.44083 1.21124 -7.35197e-18)
(2.99583 -0.497036 7.61106e-18)
(5.97981 2.63226 -2.59589e-18)
(6.20807 2.7057 0)
(3.04749 -1.39398 1.34846e-17)
(2.97847 -1.37785 1.40844e-17)
(6.92795 -3.36656 3.41661e-18)
(6.61319 1.17823 1.61332e-17)
(7.2722 -1.8442 1.35391e-19)
(4.21839 -0.740865 -2.21496e-17)
(6.60431 1.71732 1.07594e-18)
(5.23074 -1.40443 -1.16737e-17)
(4.32468 -0.992665 0)
(7.1312 -0.337594 -6.07939e-18)
(3.22989 -0.472051 -2.28976e-17)
(4.02663 -1.75052 -8.87511e-19)
(0.521164 0.238556 8.33349e-17)
(7.28823 -1.77883 1.62991e-19)
(4.73026 0.085177 1.39679e-18)
(5.58347 -3.28375 9.20835e-19)
(4.46982 -0.619623 -2.11815e-19)
(3.99825 -1.83059 0)
(5.92543 -2.88458 1.15174e-18)
(6.15455 -3.01808 4.47501e-18)
(6.07559 -3.60621 1.75553e-18)
(6.15168 -3.57136 -1.14318e-18)
(6.23499 2.34902 -1.79623e-18)
(6.16711 2.47744 1.96778e-18)
(0.564245 -0.294737 0)
(3.17597 -1.35729 2.7761e-18)
(3.09945 -1.30921 -1.94706e-17)
(4.41817 -0.879687 1.4051e-17)
(5.81047 -1.59506 -7.74522e-18)
(6.6999 2.89214 6.23786e-19)
(5.81617 2.8732 1.56874e-19)
(5.55919 -4.13122 1.26661e-18)
(1.42225 0.539321 -1.75001e-17)
(5.94645 2.54522 -3.51458e-18)
(6.71521 -2.51443 0)
(6.81239 -2.41579 1.30315e-20)
(6.87726 1.83082 -5.67626e-19)
(6.79667 1.83365 0)
(6.45443 2.07842 -2.36746e-18)
(6.50978 2.12344 0)
(6.04668 1.0321 0)
(6.69611 1.93271 -1.13381e-18)
(6.76055 1.92712 9.81872e-19)
(3.24592 -0.598604 3.16541e-17)
(3.34936 -0.641544 3.10829e-17)
(5.68854 2.78504 -2.90585e-18)
(5.98329 2.7592 0)
(5.97689 2.75763 0)
(6.71943 -2.8031 3.21703e-18)
(6.6821 -3.12108 5.39436e-18)
(4.34917 -0.917055 0)
(4.48291 -0.567389 0)
(5.54791 -3.70979 1.34621e-18)
(5.02922 -1.20206 2.8036e-17)
(4.64632 -1.06844 -7.75421e-18)
(4.10386 -0.839732 -2.5638e-17)
(3.7854 -2.589 1.90828e-18)
(6.26235 2.26206 0)
(4.0214 -1.95694 -2.13161e-18)
(5.97994 2.75338 4.56805e-19)
(5.98377 2.73579 -5.70311e-19)
(3.22176 -1.26127 9.98669e-18)
(6.79519 -0.420293 0)
(5.49649 -3.79214 0)
(3.2062 0.0536398 0)
(6.27202 -4.12675 1.31048e-18)
(6.25329 -4.06236 -6.39286e-19)
(5.52999 -3.87692 0)
(5.6 -3.88312 -2.372e-18)
(5.50266 -3.98127 1.21471e-18)
(4.44138 -0.637813 7.13108e-19)
(4.38559 -0.812173 1.25247e-21)
(6.90375 -3.55618 -1.80387e-19)
(6.15566 2.3504 3.23909e-19)
(6.118 2.43031 5.01953e-18)
(6.1503 -3.23638 2.39017e-18)
(6.59048 -4.18692 0)
(3.16802 -1.50055 -7.57135e-18)
(3.08821 -0.328807 0)
(6.05468 2.42513 -5.41324e-18)
(6.03118 2.46842 0)
(6.02191 2.35181 0)
(7.07554 0.25813 -1.71885e-17)
(4.45387 -0.655813 -1.95285e-18)
(4.3849 -0.831729 -2.14891e-18)
(6.57906 0.51944 -8.20491e-17)
(6.69149 0.398153 -5.18498e-17)
(5.0458 1.14672 1.14189e-18)
(5.08043 1.36491 -1.44181e-18)
(6.29126 -4.00542 0)
(5.74744 -3.60825 1.56326e-19)
(6.23101 2.59696 0)
(6.31323 2.54138 0)
(6.27411 2.51768 0)
(6.28132 2.61383 0)
(3.08211 -1.20007 -5.57572e-18)
(5.41597 -4.00482 0)
(3.05169 -0.506953 1.0231e-17)
(3.12565 -0.496935 -6.55877e-18)
(3.09538 -0.424062 -1.81231e-17)
(3.08612 -0.546387 -5.3224e-18)
(6.39838 2.42428 4.4831e-19)
(6.34552 2.39266 3.61886e-18)
(6.41811 -4.09929 1.32043e-18)
(5.98892 2.75126 4.28623e-19)
(6.63357 1.60063 9.54598e-18)
(7.47635 -0.434357 0)
(6.48459 -2.31238 1.39465e-17)
(6.63667 -2.61989 2.97357e-18)
(6.13444 -2.00957 0)
(7.0984 -0.370808 2.64068e-18)
(3.24697 -0.34849 0)
(3.26182 -0.126875 0)
(5.68446 -0.810806 0)
(0.495414 -0.151708 8.08607e-17)
(6.15611 -2.52233 -4.84212e-19)
(2.88444 -1.88891 -1.14386e-18)
(6.47932 -2.48098 0)
(3.07668 -0.651504 4.70482e-18)
(3.0766 -0.848833 1.01132e-17)
(5.98794 2.75531 -9.94475e-20)
(5.98979 2.75156 -1.66191e-20)
(5.99355 2.7519 1.43839e-19)
(6.15384 0.338413 -8.28862e-17)
(3.44288 -0.170623 3.11317e-17)
(3.32168 -0.325775 2.23752e-18)
(3.46031 -0.327751 -3.45085e-17)
(3.33624 -0.163848 -2.35229e-18)
(6.98884 0.176762 2.27726e-17)
(7.06854 -0.266892 -3.08632e-18)
(3.47797 -0.101644 -2.50994e-17)
(3.74924 0.0453579 -5.99945e-18)
(3.71914 -0.122633 1.10569e-18)
(3.61709 0.601296 0)
(3.81625 0.354932 2.68448e-17)
(3.01763 -1.19031 0)
(3.00204 -1.09793 1.18314e-22)
(6.59496 -0.60735 8.16433e-18)
(6.65057 -0.385534 3.42559e-18)
(6.15391 2.52679 -5.02626e-19)
(6.19651 2.58495 5.31028e-19)
(3.68261 -0.372217 1.54219e-17)
(6.36649 2.54598 0)
(6.40074 2.48943 0)
(6.3949 2.62818 0)
(6.43099 -3.22647 4.91899e-18)
(6.62248 -3.23612 0)
(2.92431 -0.48571 -6.5185e-18)
(6.42865 -2.65964 -4.77741e-18)
(6.23438 -2.88571 4.90366e-18)
(6.39378 -4.17125 0)
(6.31761 -4.12143 -1.38242e-18)
(6.38667 -4.11298 5.41081e-20)
(6.32837 -4.19262 0)
(6.71116 0.291032 0)
(6.08695 -3.42414 3.02869e-20)
(6.16555 -3.50033 1.14492e-18)
(6.16933 -3.33233 -1.19977e-18)
(6.41073 -0.449762 -4.30381e-17)
(6.42935 -0.576983 5.83642e-17)
(6.50223 -0.388935 -6.55573e-17)
(3.11301 -0.277325 5.66035e-18)
(3.1945 -0.179571 -5.83392e-18)
(3.13098 -0.178631 -2.94357e-18)
(3.18676 -0.28194 2.82888e-18)
(4.32491 -0.414505 -3.24756e-17)
(4.10486 -0.52564 1.12904e-18)
(4.22686 -0.543923 0)
(4.26174 -0.316126 1.97484e-17)
(6.83373 0.587447 2.0075e-17)
(3.48502 -3.62241 2.70987e-18)
(3.57384 -3.37824 1.14364e-18)
(3.36422 -1.80759 6.29663e-20)
(3.23268 -1.84871 -5.32612e-18)
(3.09953 -0.155411 -5.18869e-18)
(3.10322 -0.0404859 5.57107e-18)
(3.0173 -0.180472 0)
(4.07226 0.480237 0)
(3.81118 0.762511 9.43079e-18)
(4.26891 -0.236079 0)
(4.06522 -0.0286137 0)
(3.99319 -0.217465 0)
(4.28421 -0.106252 0)
(6.78339 -2.24703 3.41071e-20)
(6.78864 -2.30805 0)
(5.84481 -3.3701 1.07476e-18)
(5.90608 -3.49054 0)
(5.97309 -3.39906 1.91741e-19)
(5.80883 -3.42033 -3.00868e-18)
(5.0811 1.47638 0)
(5.87845 -2.98254 -4.49182e-18)
(5.68972 -3.18023 0)
(5.13404 2.09275 -7.23045e-19)
(5.12368 1.49691 0)
(3.67138 -0.382891 -2.49512e-17)
(3.9026 -0.233171 0)
(3.7536 -0.191286 0)
(3.88112 -0.381653 3.08851e-17)
(3.38568 -1.13674 4.29259e-17)
(3.33582 -1.26383 -1.53942e-17)
(6.92386 0.143862 -5.25406e-18)
(6.55728 -0.0726588 9.82911e-17)
(6.51348 -0.185218 0)
(6.46763 -0.140237 9.77242e-17)
(6.59763 -0.161568 0)
(3.33093 -1.03374 -1.86019e-17)
(3.39917 -0.896605 0)
(3.21952 -0.998193 0)
(4.3895 -1.09108 -2.64648e-17)
(4.55596 -0.726364 -1.18511e-17)
(4.37515 -0.822764 1.22395e-17)
(5.91396 -3.66448 8.98172e-19)
(5.90862 -3.56136 1.47245e-18)
(5.98727 -3.58726 -8.91196e-19)
(5.85799 -3.60459 -1.87903e-18)
(6.36721 -3.16826 -6.34904e-18)
(6.23059 -3.05557 -3.97011e-18)
(6.38931 -3.07051 1.43252e-18)
(6.21456 -3.16981 -2.8825e-18)
(4.16135 -1.37188 0)
(4.13122 -1.46727 0)
(4.17445 -1.35177 -2.16584e-19)
(5.79809 2.91292 7.31265e-20)
(7.35576 -0.19162 -3.09568e-17)
(7.17742 -0.227916 3.51759e-18)
(7.24848 -0.21691 1.92372e-17)
(7.28542 -0.195278 -1.27587e-17)
(5.9649 3.02788 -2.76181e-19)
(5.18342 -0.152227 5.41331e-17)
(5.98639 2.55737 -1.77878e-18)
(5.99465 2.60154 -8.29848e-19)
(6.0397 2.51923 1.48059e-18)
(3.39325 -1.3867 0)
(3.32528 -1.53897 0)
(3.5638 -1.40169 2.69129e-17)
(5.66874 -1.30553 4.38133e-18)
(3.49999 0.360119 0)
(3.66694 0.364555 2.46192e-19)
(3.59941 0.284364 0)
(3.5734 0.491053 -1.1144e-17)
(6.93419 0.447885 2.6504e-17)
(3.08773 -0.931735 2.94271e-18)
(3.00847 -1.04497 -6.62442e-18)
(3.01247 -0.976851 3.50033e-18)
(3.08881 -1.02358 0)
(8.03911 0.202558 -6.4209e-17)
(0.422884 -0.0637902 1.61086e-16)
(7.76106 -0.344172 4.45643e-17)
(8.08331 -0.0211596 0)
(1.70241 -0.144952 -3.26283e-17)
(7.09104 0.298741 -1.40325e-17)
(4.67458 0.0637341 -7.85139e-17)
(6.99747 0.0220683 4.41148e-17)
(7.00724 0.112012 -2.84367e-17)
(7.00654 0.0855876 -5.6753e-17)
(7.97694 -0.224405 0)
(3.70237 -0.472938 -3.69956e-18)
(6.74655 0.293497 0)
(6.79269 0.245187 1.98018e-17)
(5.95203 -0.0911533 0)
(6.28214 0.195365 -9.66609e-17)
(6.16887 0.242533 5.13368e-17)
(6.49269 0.0745053 2.73141e-17)
(6.41736 0.118793 0)
(3.25718 -0.370767 6.19388e-18)
(6.91405 0.183122 -4.82085e-17)
(6.89115 0.21801 -5.24444e-17)
(5.34115 -0.17754 -3.36475e-17)
(6.95521 0.30728 2.03046e-17)
(6.94396 0.361734 1.33284e-17)
(3.09097 0.569199 2.17076e-17)
(7.00951 0.0783958 5.01818e-17)
(7.71507 0.34179 -1.94281e-17)
(0.294314 0.0740263 -1.05682e-16)
(7.00327 0.149217 -9.9505e-18)
(6.96798 0.238414 3.29484e-17)
(7.19824 0.290962 0)
(5.37363 -0.343742 -6.69466e-17)
(7.41311 -0.204881 9.33751e-17)
(3.40091 -0.391308 3.16777e-18)
(3.49778 -0.329281 -1.5351e-17)
(6.88571 0.914659 1.35656e-17)
(7.01208 0.123053 3.75387e-17)
(7.33758 -0.250149 -2.46857e-17)
(7.39353 -0.266077 -8.59613e-17)
(7.34387 -0.319726 2.82747e-17)
(7.63067 -0.195213 4.15577e-17)
(6.55991 -0.430101 7.58072e-18)
(6.53665 -0.538357 -1.04705e-17)
(7.13799 -0.18847 1.04561e-18)
(7.1247 -0.231604 2.31784e-17)
(7.05947 0.214915 -7.75669e-18)
(6.33855 -0.31163 -7.39078e-17)
(6.7063 -0.445609 0)
(6.67638 -0.568817 0)
(6.9395 -0.154906 -6.14269e-18)
(6.82486 -0.157905 0)
(0.275824 0.0787637 0)
(3.46105 0.554034 1.22261e-17)
(7.56914 -0.14772 3.232e-17)
(7.65282 -0.121922 5.81105e-18)
(7.26582 0.410249 1.9733e-19)
(7.08586 -0.230188 0)
(7.15956 -0.197339 0)
(6.68412 0.23428 -1.85929e-17)
(7.58851 -0.377708 0)
(7.00215 0.0715732 -2.57459e-17)
(6.99627 0.0891194 9.31849e-17)
(7.01528 0.182954 -3.44584e-19)
(6.57001 -2.45872 1.00393e-17)
(6.30164 -2.09737 -8.18891e-18)
(6.26416 -1.99674 7.40004e-18)
(5.62514 0.0833797 4.07763e-17)
(7.00962 0.15762 0)
(4.95071 -0.112906 -2.33195e-16)
(7.3821 -0.347209 0)
(6.61721 -0.0656089 -2.52311e-17)
(6.34827 -0.0764673 1.26352e-17)
(6.21229 -0.0785001 1.17788e-17)
(7.11644 0.341399 -2.50757e-17)
(3.93015 -0.619991 0)
(7.4805 -0.369973 8.22765e-18)
(7.43643 -0.337557 -3.90255e-17)
(4.69287 -0.145571 0)
(4.8865 -0.135534 0)
(2.96777 -0.95559 8.72356e-20)
(7.82555 0.236195 -9.75678e-18)
(7.22266 0.217701 -3.54228e-17)
(7.31275 -0.033855 0)
(8.3807 -0.058591 -1.06923e-16)
(7.17001 0.378449 0)
(7.13444 0.335848 1.21634e-17)
(6.94153 0.198534 -3.62048e-17)
(4.67618 -0.513067 0)
(8.17634 0.108468 -4.07135e-17)
(7.974 0.186929 -8.56137e-17)
(5.92669 0.0220039 5.1067e-17)
(5.76891 0.0960852 -5.98424e-17)
(7.34293 0.0973657 -1.08829e-17)
(6.3344 2.24078 1.52198e-18)
(6.37248 2.13481 -1.66162e-18)
(5.87178 -0.144564 -2.1515e-17)
(7.00082 0.0215996 0)
(6.99578 -0.342071 -2.50585e-18)
(7.07116 -0.26487 -2.54626e-18)
(7.01431 -0.295758 0)
(8.16174 -0.028517 1.28556e-17)
(8.09304 0.0333809 -2.57742e-17)
(3.88229 0.480841 0)
(3.77079 0.636824 2.05524e-17)
(6.3801 2.28804 2.55028e-18)
(6.47404 2.23345 -2.36068e-18)
(6.77279 0.04149 1.54608e-16)
(6.55315 0.0444011 5.70555e-17)
(0.551297 0.112982 1.3132e-17)
(5.1563 -0.0493882 4.44705e-17)
(7.08078 -0.00524649 -9.35787e-17)
(6.93816 0.139978 -4.29417e-17)
(6.8711 0.161004 7.04692e-17)
(6.82057 0.196222 -6.11283e-17)
(7.00971 0.0566806 0)
(7.00212 0.0448349 -1.33011e-17)
(6.93568 -0.380716 2.51504e-18)
(6.93735 -0.321879 -8.7946e-18)
(7.00986 -0.278338 0)
(3.59208 -1.31266 -2.94582e-17)
(3.50093 -1.14753 -8.30377e-18)
(3.58495 -1.02191 0)
(6.8792 0.18055 -7.4044e-17)
(6.8427 0.250657 -4.09197e-17)
(6.8665 0.216346 4.92149e-17)
(6.81167 0.266295 6.64446e-17)
(7.85864 0.352789 1.03048e-16)
(7.80652 0.308286 -4.45606e-17)
(7.8463 0.233879 0)
(6.75388 -0.0825227 3.06704e-17)
(3.07576 -1.52052 -7.3974e-18)
(6.5959 0.105144 -2.73847e-17)
(6.55925 0.155193 4.66479e-18)
(6.93527 0.059107 1.19051e-16)
(7.26191 -0.0827729 1.419e-16)
(3.59297 -1.57463 0)
(3.41362 -1.66199 4.84163e-18)
(5.59489 -0.0488791 -9.66588e-17)
(5.42477 -0.0660839 3.98253e-17)
(7.36704 0.100031 0)
(6.83344 -0.0855224 9.60744e-17)
(7.51073 0.0727225 -5.06014e-17)
(7.33079 -0.166866 0)
(6.82683 -3.08076 6.53806e-18)
(6.79178 -2.87515 -6.63304e-18)
(5.0104 0.0647993 0)
(5.1771 0.00562577 -5.16114e-17)
(5.32716 0.0753831 3.50144e-17)
(4.16399 0.29144 0)
(4.32446 0.251308 2.24192e-17)
(6.8548 0.28594 -1.70319e-17)
(6.84207 0.328681 -1.55365e-17)
(6.81225 0.343316 0)
(7.96813 -0.208209 -7.32606e-17)
(7.05356 0.0113154 0)
(6.96869 -0.0043274 -4.37637e-17)
(6.48335 -0.00925032 -1.77555e-16)
(6.31295 -0.0840679 0)
(6.38423 -0.00561751 1.06459e-17)
(7.12256 0.261961 1.65026e-17)
(7.1281 0.298994 3.15563e-18)
(6.19467 -0.06231 0)
(6.1765 0.0391001 -2.61822e-17)
(6.06392 0.0949019 -1.20078e-16)
(7.01312 0.0303276 0)
(7.54786 -0.344891 0)
(7.67955 -0.296953 0)
(7.68057 -0.269719 0)
(0.5819 -0.0765016 -6.62035e-17)
(3.24198 0.519608 -6.07079e-18)
(7.1523 -0.263294 0)
(7.11126 -0.307518 1.14358e-17)
(7.06731 -0.299532 -7.20451e-18)
(3.60602 -0.725352 6.31207e-18)
(3.53048 -0.882016 0)
(7.72279 -0.118634 3.38278e-18)
(7.97915 0.0758613 6.30935e-17)
(7.71952 0.153631 0)
(8.80308 0.375793 8.9704e-19)
(8.74229 0.434234 0)
(5.81511 1.29326 8.72877e-20)
(6.25171 -4.59252 1.1877e-20)
(6.63903 0.582898 -7.59444e-17)
(4.84044 0.477396 1.13289e-18)
(5.98601 1.3176 -2.34596e-20)
(2.92317 0.471723 6.90091e-18)
(4.37417 -0.902538 0)
(5.76612 3.16547 3.37803e-19)
(5.17805 -3.54263 0)
(5.21154 -3.61596 0)
(6.91219 -4.13809 0)
(5.95566 2.67314 0)
(5.95105 2.66612 3.87734e-20)
(5.96657 2.78451 0)
(5.97654 2.79106 -1.75224e-21)
(5.94968 0.473633 0)
(6.83351 0.137209 -2.05835e-19)
(6.91401 -2.7017 0)
(3.74317 -2.68909 1.01525e-18)
(4.76361 0.100245 1.42311e-19)
(6.14076 -2.77492 4.96355e-20)
(6.18984 -2.82199 -5.95172e-20)
(6.771 -4.31938 -1.33201e-19)
(6.78546 -4.33345 0)
(6.17331 1.1035 0)
(7.15687 0.905041 0)
(1.38097 -1.487 4.28204e-17)
(2.82836 0.0502886 -2.26484e-18)
(2.89085 -3.36883 -4.59083e-18)
(2.74167 -3.26903 0)
(6.06435 2.8783 6.10332e-20)
(6.44915 0.719658 0)
(6.4279 0.780084 0)
(5.266 0.984808 0)
(3.61234 -3.22031 0)
(6.55418 0.350058 -6.77544e-21)
(2.64915 -0.899718 -5.30307e-18)
(6.16266 1.45099 -2.1383e-21)
(3.89461 -2.33205 -1.22716e-18)
(5.92545 0.506986 -7.94194e-23)
(5.14716 1.36053 0)
(5.13029 1.31571 0)
(6.07424 3.00961 0)
(6.91661 0.0395032 -2.24096e-19)
(6.54522 -4.43198 6.77794e-19)
(3.32209 -4.25084 1.54376e-18)
(3.42439 -3.94318 3.84345e-20)
(6.18721 1.08888 0)
(7.38797 -0.670981 0)
(5.72125 3.18374 -8.62143e-19)
(5.68547 3.15073 0)
(6.18725 3.21267 2.27564e-19)
(6.67813 -0.806902 2.09141e-17)
(6.79565 0.431181 0)
(6.32324 0.969567 -3.91265e-21)
(6.67783 -0.90957 2.45288e-17)
(5.70142 3.46354 -1.15826e-20)
(6.73803 -2.6731 -3.969e-20)
(6.729 -2.62789 4.76017e-20)
(6.81292 -4.0558 6.83742e-19)
(6.81301 -4.01871 2.40598e-18)
(6.48426 0.571535 -1.23113e-20)
(6.51017 0.489768 -2.57431e-21)
(7.46143 -0.325697 8.02168e-19)
(5.92913 2.68302 0)
(5.94256 2.66953 -3.58364e-20)
(7.99047 0.903485 1.4343e-18)
(6.03617 0.956917 1.96924e-20)
(5.73162 -4.52612 1.633e-18)
(5.57541 -3.09633 -2.1005e-18)
(5.55611 3.11745 -4.92434e-20)
(6.36659 -2.92977 1.69506e-20)
(6.81434 0.0199282 0)
(6.02475 -2.44362 4.20271e-18)
(5.82575 0.822358 -6.28252e-18)
(6.22597 -2.14075 0)
(4.65728 -1.47043 2.69625e-17)
(7.99263 -0.00497726 2.35732e-20)
(3.65412 2.3476 -2.0681e-18)
(5.53273 2.57893 1.62851e-18)
(5.49148 2.53373 -1.60418e-18)
(6.2481 1.24258 0)
(4.28209 -1.08816 -1.99852e-19)
(4.20791 -1.28229 -1.89429e-19)
(5.97683 2.73623 2.2753e-19)
(6.23163 -2.91642 4.09369e-20)
(5.29602 2.32411 -1.55044e-19)
(2.94295 -0.100058 6.59353e-18)
(2.99988 0.0659212 1.18757e-17)
(7.07101 -1.88914 1.26007e-19)
(5.92757 0.894026 7.24782e-20)
(5.9296 0.947324 -1.16528e-19)
(6.05379 -4.68051 -8.5096e-19)
(5.96734 -4.7041 -2.30292e-20)
(7.12957 0.220068 1.97048e-19)
(7.12126 0.281081 1.30735e-19)
(7.01568 -2.21589 0)
(6.44451 0.240286 -3.40388e-20)
(5.25004 1.9099 7.75542e-19)
(5.25951 1.77469 9.73952e-19)
(6.48668 3.19632 6.2096e-20)
(6.43302 0.44731 5.56479e-21)
(5.12203 -4.38163 -8.42483e-19)
(5.85373 3.2859 3.19393e-19)
(5.91898 3.19995 5.81365e-20)
(4.58147 -0.621801 -8.20216e-19)
(4.64417 -0.780773 -3.90553e-19)
(7.2345 -1.21774 0)
(6.26311 0.289258 9.16909e-20)
(6.72969 0.670337 0)
(6.67194 0.608208 8.09092e-20)
(6.1287 0.464694 -1.18069e-19)
(4.02046 -1.84982 0)
(3.99626 -1.86675 0)
(6.00243 0.875493 1.55364e-20)
(6.76922 -0.0700214 -3.93969e-20)
(6.89655 -3.96027 0)
(5.67488 1.3901 0)
(7.51913 -3.98076 0)
(6.37151 -4.63946 4.5667e-19)
(6.36288 -4.68154 8.09482e-19)
(4.77992 -0.0517555 9.81227e-19)
(4.75319 -0.154159 -9.02709e-19)
(4.26289 -1.20962 -4.8157e-19)
(7.99669 -4.47623 8.45982e-19)
(7.63207 -3.03604 7.94377e-20)
(1.15674 -3.17029 5.29521e-18)
(7.76092 -4.04905 3.19552e-19)
(5.83549 2.78308 -8.31568e-20)
(6.11901 2.72933 4.6353e-19)
(7.00574 -1.04752 -1.24646e-19)
(7.04906 -1.00472 5.53082e-20)
(5.5313 2.9918 6.43542e-20)
(4.35582 -0.895391 7.78068e-19)
(3.63947 -3.39878 4.48265e-18)
(6.0395 1.25517 0)
(8.478 -2.01827 1.70679e-18)
(6.44927 0.920346 5.55481e-20)
(6.8286 -1.71894 0)
(6.24967 0.454115 3.82584e-20)
(6.1472 2.06478 7.17049e-19)
(6.10033 2.01863 -1.47373e-18)
(7.19355 -0.604708 2.11277e-19)
(7.15628 -0.511729 -3.76866e-19)
(5.87763 -3.18377 -2.3427e-19)
(4.99904 0.747131 -4.89689e-19)
(6.01122 2.71143 -1.33543e-19)
(5.99881 3.11473 -1.37434e-21)
(6.25938 1.15983 9.99708e-22)
(5.82076 1.1376 8.2562e-20)
(6.38856 0.332244 0)
(2.41255 -1.87339 0)
(4.41677 -0.79404 0)
(7.15828 1.55082 7.46426e-20)
(7.15523 -1.0727 1.14964e-19)
(6.96143 -2.22703 -7.73204e-20)
(6.85284 -2.29988 0)
(4.83767 -0.347648 -9.10294e-19)
(4.86463 -0.378264 0)
(5.01293 -3.37078 1.98997e-19)
(5.10845 -3.42847 -2.28995e-19)
(6.56603 -1.65574 0)
(7.23556 -0.216332 0)
(7.21585 -0.161762 0)
(6.84493 -4.27998 0)
(6.80846 -4.31884 0)
(6.09823 2.75123 2.92816e-20)
(6.08455 3.03022 1.25151e-20)
(6.07746 3.05695 -6.0594e-20)
(5.99902 2.72145 -1.51765e-19)
(7.11441 -2.03325 1.39243e-19)
(7.0374 -2.14606 5.71022e-20)
(6.4853 3.2385 -1.37911e-19)
(5.72834 1.29484 0)
(5.80326 1.1338 1.69624e-19)
(5.81244 1.04485 7.69284e-20)
(6.37499 0.755338 1.24863e-20)
(6.40867 0.781638 -2.36691e-20)
(7.34912 -3.92289 3.39771e-18)
(7.38722 -3.85717 0)
(5.93021 2.49419 -2.23888e-20)
(6.87116 -1.59987 3.90587e-20)
(6.86873 -1.69741 0)
(2.96219 0.585324 -7.17515e-18)
(2.92976 0.542614 8.16024e-18)
(2.95585 0.699176 -3.65592e-18)
(6.642 -4.17979 8.17797e-19)
(5.98926 -0.885808 0)
(6.21489 -1.58655 0)
(5.8004 0.236796 2.08882e-19)
(5.7674 -2.73131 0)
(5.00108 0.655972 -5.10308e-20)
(4.98634 0.49224 6.32804e-19)
(6.7352 -3.54526 3.39745e-18)
(6.96376 -1.05701 -1.44688e-19)
(5.95252 2.70502 -1.93368e-19)
(6.20372 2.00318 8.64783e-21)
(7.337 -0.944763 0)
(7.32769 -0.769043 0)
(6.01127 -0.103246 8.80934e-21)
(7.06193 -2.52883 2.2036e-19)
(6.45676 -4.67839 -1.80567e-19)
(6.46822 1.59589 9.64123e-19)
(6.69575 0.573458 0)
(6.73245 0.603686 0)
(6.11538 -4.54177 5.04542e-19)
(6.22421 -4.50789 0)
(7.22076 -4.92977 -6.66936e-19)
(4.93871 0.120758 0)
(4.6111 -0.52681 1.35937e-19)
(3.32277 -3.17532 0)
(5.98305 2.66596 1.37571e-19)
(6.23556 -4.7441 0)
(5.98966 2.68861 6.47215e-20)
(6.00739 2.68925 -1.34516e-19)
(5.09388 -3.64485 2.25038e-19)
(4.86242 -3.687 0)
(7.21071 -1.50655 0)
(7.19963 -1.57265 0)
(6.96269 1.16614 0)
(5.97992 2.68882 -6.80083e-20)
(5.96306 2.68716 1.99334e-19)
(6.00272 2.67884 -8.2246e-20)
(6.00907 2.66912 7.1132e-20)
(5.99502 2.67764 1.04755e-21)
(6.53683 0.497466 -3.83713e-20)
(5.25762 0.915553 0)
(8.40288 -2.0694 7.1146e-19)
(6.06404 2.89913 5.05444e-20)
(5.9741 2.79964 -4.53165e-19)
(5.95691 2.79935 0)
(5.59044 -4.69803 -3.51994e-19)
(5.59525 -4.75367 3.62639e-19)
(6.14511 1.03924 -6.7202e-23)
(4.98018 0.773007 -3.92402e-20)
(5.42319 -1.65086 -1.43729e-17)
(5.04122 -1.3554 1.55393e-17)
(5.91051 -1.9382 1.1091e-18)
(5.91856 1.0947 8.18442e-20)
(4.81853 0.396186 -1.78994e-18)
(5.94115 2.77967 -1.34456e-19)
(6.04305 2.6736 2.39002e-20)
(7.79792 -4.49668 -1.03791e-18)
(5.24349 1.5874 0)
(4.79576 -0.891678 -5.54185e-19)
(5.98014 2.81234 4.29913e-19)
(5.97517 2.80055 -5.81402e-19)
(5.96717 2.82299 -1.19449e-19)
(6.48278 -2.60587 2.6497e-20)
(6.92541 -1.96929 0)
(7.76649 -4.33572 9.70078e-19)
(6.74866 -2.01047 4.46307e-21)
(6.66061 -2.09568 2.71055e-20)
(6.63084 0.586943 4.77342e-20)
(6.61267 -4.27629 -2.08967e-21)
(6.53729 -4.34982 0)
(5.48157 -3.08847 4.63415e-19)
(7.40639 -4.73623 2.72236e-19)
(6.48053 -3.59638 1.1382e-19)
(6.50645 -4.58244 6.71465e-19)
(7.52082 -1.52964 -5.07314e-20)
(3.45886 -3.74782 -1.25704e-18)
(3.47235 -3.78232 6.85637e-21)
(1.55572 -1.27276 1.54303e-17)
(6.54146 -4.30739 2.40943e-19)
(6.50188 -4.28728 0)
(6.57757 -4.26662 -2.77554e-19)
(2.81799 0.675729 -1.0226e-17)
(5.12487 0.990426 -2.16061e-19)
(5.15537 1.08986 1.1089e-18)
(6.25234 -2.28933 0)
(6.50064 -4.36992 6.07264e-19)
(7.2797 -1.13878 -8.26758e-20)
(7.30303 -1.05464 -9.72631e-20)
(6.27953 -1.08147 -1.07722e-19)
(6.466 0.804111 3.23136e-20)
(5.21526 3.00843 -6.08209e-19)
(3.14557 0.511321 0)
(7.00626 -3.46584 0)
(6.43195 1.679 4.79979e-18)
(6.62278 -2.71314 -4.39675e-23)
(5.65671 2.82751 1.55024e-18)
(5.63375 2.94149 -7.55206e-19)
(6.5131 -1.67301 0)
(6.50742 -1.75849 2.13283e-20)
(6.45027 -1.80196 -7.31445e-20)
(7.04459 -4.16253 1.03286e-19)
(4.0901 -1.89894 -3.28196e-18)
(6.47642 2.93625 -3.31298e-20)
(6.3886 3.06618 -4.00836e-20)
(2.26802 -0.9663 -1.27357e-17)
(6.26154 3.01418 7.45089e-19)
(5.36393 -3.65441 0)
(5.89218 3.04341 1.60695e-19)
(5.85202 3.11926 -1.50748e-19)
(6.76558 -4.24395 -4.25851e-19)
(4.99373 -0.957015 -6.5657e-19)
(5.92864 3.23569 0)
(5.90018 3.28022 -1.19963e-19)
(4.77137 0.214849 -6.96462e-19)
(4.51293 -4.18886 7.02122e-19)
(6.68044 0.461941 1.98071e-19)
(4.98439 2.42507 -2.08952e-20)
(5.43208 -4.49747 5.56846e-19)
(5.29457 -4.50655 -1.28605e-18)
(6.03305 2.7974 -6.41111e-20)
(6.1781 -1.20312 0)
(4.56582 -0.348657 -9.01459e-20)
(4.51536 -0.489918 0)
(4.52247 -0.455308 8.43451e-20)
(5.23407 1.95144 -1.00034e-18)
(6.33 -2.28316 -9.47146e-20)
(6.4365 -2.23524 0)
(6.61068 -2.20223 9.46182e-21)
(6.61662 -2.11916 -2.73379e-20)
(7.03446 -2.08657 4.11628e-20)
(7.07441 -2.02065 -1.55015e-19)
(7.25998 -1.11386 -7.96292e-20)
(7.22619 -1.14354 7.99805e-20)
(7.23955 -0.995508 0)
(4.99048 0.744343 -2.37064e-21)
(4.96273 0.707554 -1.16031e-18)
(4.86075 0.591974 3.01734e-18)
(6.61693 -1.8795 7.66233e-21)
(6.60518 -1.96684 0)
(6.69092 -4.32267 2.27609e-19)
(6.74083 -4.29733 -2.19194e-19)
(5.99736 -4.20321 -3.01703e-18)
(6.04752 -4.26592 1.51628e-18)
(5.05977 -4.46471 -6.18306e-19)
(4.93603 -4.40196 -5.24942e-19)
(6.54959 0.816116 1.57565e-19)
(5.55594 -3.59737 -1.22971e-18)
(5.4566 -3.56887 9.96793e-19)
(6.56189 -0.699322 -3.99342e-17)
(6.60045 -0.792869 -2.78363e-17)
(3.68159 -3.09118 2.85453e-20)
(3.66871 -3.10628 0)
(7.38709 -1.30766 4.49037e-19)
(2.85682 -0.0800284 -2.17862e-18)