/*--------------------------------*- C++ -*----------------------------------*\
  =========                 |
  \\      /  F ield         | OpenFOAM: The Open Source CFD Toolbox
   \\    /   O peration     | Website:  https://openfoam.org
    \\  /    A nd           | Version:  6
     \\/     M anipulation  |
\*---------------------------------------------------------------------------*/
FoamFile
{
    version     2.0;
    format      ascii;
    class       volScalarField;
    location    "600";
    object      nuTilda;
}
// * * * * * * * * * * * * * * * * * * * * * * * * * * * * * * * * * * * * * //

dimensions      [0 2 -1 0 0 0 0];

internalField   nonuniform List<scalar> 
29874
(
0.251613
0.207279
0.121574
0.155394
0.178792
0.241527
0.217298
0.141058
0.152905
0.141856
0.268086
0.25804
0.182129
0.262898
0.266368
0.283393
0.17537
0.27739
0.118827
0.141928
0.14066
0.143785
0.140546
0.153393
0.144476
0.177008
0.219945
0.143836
0.233444
0.233823
0.229576
0.195448
0.195044
0.220607
0.1515
0.157998
0.142257
0.162892
0.16408
0.200318
0.139909
0.139658
0.145188
0.133086
0.191291
0.160711
0.178045
0.244934
0.239009
0.239795
0.193948
0.291441
0.267736
0.279214
0.199653
0.192916
0.134873
0.169832
0.166092
0.172035
0.16376
0.149106
0.147479
0.167407
0.123467
0.189815
0.238383
0.176397
0.262093
0.28332
0.154934
0.148352
0.144379
0.109379
0.285132
0.230719
0.232109
0.226468
0.182921
0.164765
0.192385
0.111286
0.138365
0.146614
0.0952941
0.10936
0.148778
0.140869
0.188051
0.163251
0.0699928
0.139514
0.138662
0.145194
0.134249
0.138274
0.135921
0.0981561
0.0610269
0.106553
0.150865
0.138579
0.138831
0.167707
0.211655
0.0631199
0.0753998
0.154628
0.15885
0.14439
0.0746399
0.195863
0.205255
0.138569
0.138566
0.138819
0.134815
0.150758
0.00026533
0.142252
0.139806
0.178288
0.12986
0.11544
0.136359
0.138648
0.15315
0.146943
0.142089
0.135071
0.14001
0.137121
0.150519
0.143221
0.143577
0.143288
0.146258
0.134399
0.143772
0.233492
0.200174
0.171666
0.278131
0.169533
0.14949
0.152046
0.170738
0.182884
0.139762
0.276716
0.246849
0.240906
0.2946
0.121997
0.13551
0.140118
0.150263
0.161946
0.183665
0.185196
0.166917
0.18111
0.22223
0.163033
0.215905
0.190042
0.17185
0.150251
0.149379
0.154374
0.19396
0.172983
0.16445
0.0921957
0.0806835
0.154991
0.148091
0.000330677
0.147845
0.145067
0.000253298
0.00023319
0.160499
0.143113
0.141018
0.158753
0.138332
0.138684
0.140692
0.138648
0.13853
0.190298
0.144953
0.139486
0.17065
0.143282
0.14188
0.154917
0.000488372
0.000515359
0.152184
0.150638
0.176739
0.163719
0.141042
0.13897
0.140631
0.216559
0.146752
0.140055
0.142445
0.145685
0.133869
0.141713
0.142961
0.146176
0.145641
0.142531
0.146295
0.152951
0.235802
0.197278
0.197854
0.162349
0.139711
0.145997
0.151419
0.149337
0.161364
0.139114
0.139984
0.140022
0.137501
0.130404
0.144551
0.146589
0.135331
0.170759
0.159381
0.195961
0.198654
0.00660898
0.0419398
0.101769
0.107609
0.0376927
0.0355926
0.0713164
0.131787
0.0771196
0.0822436
0.127068
0.0911933
0.0689625
0.103233
0.0512619
0.0720133
0.000535258
0.0752799
0.0768733
0.0572887
0.068897
0.0718159
0.0694506
0.0738542
0.0725553
0.0750188
0.115536
0.111953
0.000330583
0.0425729
0.0403331
0.107883
0.0887337
0.108669
0.0795879
0.0408597
0.000815315
0.103869
0.0974202
0.0958136
0.126694
0.126544
0.122005
0.121727
0.112646
0.125284
0.125431
0.0520962
0.0556452
0.084349
0.0879111
0.0893638
0.0703103
0.0735035
0.0795361
0.0805623
0.0502337
0.0991835
0.0997818
0.108519
0.0518606
0.117394
0.0511987
0.0911443
0.0886334
0.0453997
0.127716
0.0450741
0.00567253
0.071867
0.0724587
0.0449653
0.0482111
0.041464
0.0752148
0.0759031
0.0895639
0.114206
0.11201
0.0744989
0.0820964
0.0404699
0.0456698
0.110516
0.108431
0.111191
0.138255
0.0800262
0.0797418
0.136122
0.136544
0.0635642
0.0591644
0.0756213
0.0614909
0.111381
0.112853
0.113006
0.111376
0.0410524
0.036948
0.0440199
0.0478562
0.0460433
0.045763
0.116388
0.116465
0.0782311
0.0901184
0.128316
0.124423
0.0737694
0.0715006
0.0802328
0.105293
0.0527604
0.0531404
0.10826
0.000322179
0.0711668
0.027711
0.072897
0.0451324
0.0439696
0.0878264
0.088733
0.0863072
0.132358
0.0604011
0.0559679
0.059526
0.0562223
0.139563
0.131258
0.062642
0.070408
0.0686004
0.0627964
0.0725413
0.0394432
0.0394682
0.120528
0.131316
0.110528
0.110468
0.124689
0.113639
0.115214
0.112406
0.0772186
0.0761165
0.0381716
0.0729334
0.0738682
0.0750732
0.0735404
0.0758454
0.0723218
0.13812
0.0736575
0.0754577
0.0753625
0.126809
0.122679
0.130478
0.0475471
0.0504491
0.0475115
0.0500334
0.0895897
0.0820334
0.0852912
0.0869721
0.136864
0.030618
0.0387374
0.0413067
0.0375191
0.0455229
0.0451604
0.0426235
0.0815377
0.069679
0.0863211
0.0827418
0.0809445
0.0885469
0.0968637
0.0964895
0.0682337
0.0684509
0.0709874
0.0656879
0.0562168
0.0684808
0.0631691
0.0493607
0.060609
0.0689269
0.0767272
0.0708355
0.073708
0.0520324
0.0486311
0.139413
0.140213
0.138128
0.136827
0.140604
0.0517569
0.0549986
0.0489962
0.0793481
0.0899453
0.0843412
0.066862
0.0682402
0.0700956
0.0654296
0.0764581
0.0750754
0.0758046
0.0751661
0.0730295
0.0725339
0.0705593
0.0770027
0.151
0.144064
0.14763
0.14816
0.0648815
0.113627
0.104886
0.103831
0.107264
0.0484271
0.0446382
0.0521011
0.0917661
0.060931
0.0671847
0.0644939
0.0632592
0.138233
0.0432327
0.0406858
0.0404457
0.04313
0.165848
0.00025064
0.137257
0.193842
0.000576803
0.13857
0.168039
0.139511
0.139527
0.139557
0.170171
0.120005
0.138092
0.138842
0.110651
0.134768
0.133012
0.138481
0.136654
0.124737
0.138536
0.138183
0.116389
0.138732
0.138492
0.00458276
0.139166
0.142198
0.000225792
0.138382
0.138827
0.140413
0.115278
0.140092
0.12251
0.125325
0.135221
0.13935
0.132125
0.134337
0.127252
0.152319
0.128718
0.124296
0.133707
0.129329
0.13881
0.130603
0.127534
0.12165
0.100094
0.0992685
0.000233154
0.00667273
0.157495
0.16632
0.138509
0.103341
0.106123
0.139335
0.134008
0.139829
0.139633
0.138298
0.0727905
0.0777383
0.0791914
0.123715
0.13923
0.224095
0.126514
0.106748
0.102453
0.103612
0.138681
0.0135962
0.131312
0.1327
0.100538
0.106551
0.0388367
0.148769
0.140514
0.235283
0.203054
0.138323
0.138522
0.138528
0.095487
0.15817
0.146304
0.128462
0.126652
0.145524
0.118795
0.120535
0.111498
0.139816
0.12713
0.13726
0.133801
0.158632
0.147591
0.0746983
0.0692195
0.118452
0.11992
0.143365
0.140262
0.000719088
0.149724
0.181872
0.142233
0.14037
0.140023
0.139304
0.139839
0.126702
0.13443
0.139208
0.0555917
0.0554769
0.0592719
0.139104
0.13823
0.138425
0.138033
0.139676
0.143273
0.147552
0.114604
0.0373961
0.139511
0.138146
0.14562
0.153706
0.0495344
0.0449226
0.122036
0.118982
0.161252
0.21879
0.159313
0.177558
0.0697256
0.0690504
0.110542
0.114412
0.117816
0.0849999
0.0912095
0.137875
0.137693
0.137422
0.170652
0.141031
0.138786
0.138749
0.134005
0.135781
0.139107
0.138575
0.1327
0.133148
0.131055
0.13976
0.13696
0.145686
0.149281
0.000428936
0.00535716
0.117137
0.113164
0.122312
0.063389
0.0591046
0.167996
0.170242
0.158052
0.00532424
0.00627007
0.118158
0.0542961
0.135743
0.0564182
0.110059
0.0325666
0.0638899
0.0612464
0.0822721
0.0814767
0.0929262
0.0852727
0.0850649
0.0934631
0.0944084
0.121134
0.0632665
0.0923622
0.0542226
0.0840735
0.101137
0.10074
0.0843474
0.0841946
0.0969025
0.0313011
0.00309891
0.0305936
0.00646137
0.00418401
0.0689949
0.0792376
0.0788496
0.102098
0.0394894
0.0841739
0.0246217
0.078368
0.0467001
0.121314
0.0691255
0.0679344
0.0610082
0.0590031
0.0710483
0.0248851
0.0302727
0.0953375
0.0423271
0.0607838
0.0627281
0.0931474
0.105447
0.0561333
0.0821274
0.095977
0.0459259
0.0962672
0.0966907
0.0903511
0.0899029
0.0814245
0.0820974
0.0335502
0.086572
0.0855188
0.0142217
0.11491
0.0372129
0.00160114
0.0643641
0.0993179
0.0703819
0.00154417
0.00126595
0.105344
0.0795296
0.0163789
0.00449308
0.0907148
0.0914437
0.0774204
0.0696525
0.0701717
0.0889761
0.0997584
0.0594205
0.038378
0.0401349
0.0877906
0.119628
0.119055
0.0444021
0.0404749
0.0410156
0.0399061
0.0908001
0.10186
0.0634183
0.0696689
0.0347564
0.0967973
0.0158664
0.0530445
0.0559633
0.0923099
0.096249
0.0708325
0.112948
0.0541834
0.0610362
0.116811
0.0749532
0.0730741
0.117544
0.0801254
0.088192
0.116063
0.0634052
0.0563269
0.0542717
0.0932547
0.0941042
0.0863964
0.0153693
0.060807
0.00141387
0.0429281
0.0892457
0.1049
0.0856925
0.0815199
0.071162
0.0722773
0.0527191
0.106474
0.0128301
0.0702681
0.0973523
0.11137
0.118475
0.11839
0.0557221
0.0562816
0.095588
0.0842458
0.0827149
0.0585271
0.0807481
0.119494
0.104012
0.017298
0.0633175
0.0297996
0.0738049
0.0923778
0.0952555
0.0994407
0.100462
0.0293318
0.0324049
0.103703
0.0427098
0.0433124
0.0880208
0.0854018
0.0719669
0.0593972
0.0583543
0.0849443
0.086721
0.0899599
0.0334017
0.117773
0.119641
0.120076
0.0865465
0.0812274
0.0611782
0.0568221
0.105051
0.0962905
0.0961189
0.0337174
0.0324193
0.0318233
0.0841031
0.11444
0.108767
0.121294
0.100362
0.0895857
0.0924849
0.0794238
0.0878613
0.087267
0.0596003
0.0534725
0.0500348
0.119947
0.0884492
0.0572058
0.127251
0.0601252
0.0563575
0.051417
0.05667
0.0414801
0.0982941
0.0919207
0.0193696
0.0833818
0.0478603
0.0840921
0.0824346
0.0791337
0.0750699
0.0777055
0.0794484
0.0353999
0.0847908
0.0857848
0.0824135
0.0815457
0.0831021
0.0792987
0.103689
0.0146174
0.0677295
0.0825022
0.0837599
0.0278714
0.0267256
0.10356
0.0735274
0.0847066
0.0925299
0.0822762
0.117833
0.0552725
0.0920247
0.0780841
0.0238836
0.0747252
0.100015
0.0951381
0.0945671
0.0944263
0.100561
0.0940209
0.0333008
0.0985274
0.100141
0.0644427
0.0800569
0.074541
0.0534873
0.044027
0.0928614
0.0632908
0.0529984
0.0316522
0.0331261
0.00529298
0.0762998
0.0757852
0.0790124
0.0242655
0.0891448
0.0879602
0.104192
0.0722745
0.0639384
0.0604074
0.111495
0.0731072
0.0659301
0.0428837
0.0698732
0.126186
0.0981786
0.0812805
0.0746759
0.104508
0.104228
0.104812
0.0893938
0.0344819
0.105865
0.101042
0.0150062
0.100661
0.041205
0.0661457
0.0624344
0.0867657
0.103687
0.0537546
0.0522241
0.0714968
0.00513212
0.0655421
0.0393891
0.0266736
0.0210312
0.0767177
0.111439
0.0778085
0.0793438
0.0773667
0.0602734
0.103824
0.102932
0.100863
0.100912
0.0902302
0.0885249
0.0656586
0.0685872
0.064251
0.0792017
0.0768196
0.0546532
0.10165
0.101498
0.0810345
0.0842274
0.0586946
0.0588678
0.0127914
0.00937892
0.0634305
0.0518089
0.0473585
0.115528
0.10959
0.0558888
0.053416
0.0590663
0.0329844
0.0298745
0.0736663
0.063823
0.0702863
0.0858412
0.0485641
0.0960428
0.0912338
0.101565
0.10095
0.0997574
0.084894
0.105959
0.103289
0.0932214
0.0883113
0.0390959
0.040971
0.034168
0.0768528
0.0663167
0.0614113
0.0575157
0.0664452
0.116792
0.117339
0.117437
0.0768173
0.0722325
0.0744273
0.0830964
0.0812333
0.0998724
0.100236
0.0600811
0.0876639
0.0910811
0.0929817
0.0944863
0.0607156
0.0577562
0.0906874
0.0895177
0.090062
0.0899391
0.092362
0.0942119
0.091687
0.0877569
0.0917473
0.110873
0.0788518
0.052075
0.00107942
0.0847523
0.0554202
0.0534342
0.101839
0.100512
0.102333
0.109166
0.108488
0.10963
0.0411764
0.0762141
0.0740622
0.0774283
0.080714
0.0803143
0.0791597
0.0786294
0.0870531
0.0885482
0.114109
0.0116843
0.118192
0.0407506
0.0914671
0.0917248
0.0440559
0.122305
0.0185017
0.0954831
0.0953412
0.0611253
0.0567526
0.0545218
0.0594246
0.0859166
0.106491
0.103494
0.0884705
0.0845479
0.0593811
0.060282
0.0567431
0.0468927
0.109476
0.108939
0.0617162
0.0644811
0.0809249
0.0535782
0.0491348
0.0501633
0.0944332
0.0919748
0.0925076
0.0148805
0.0159473
0.000625535
0.106048
0.105162
0.10187
0.0778851
0.000759913
0.0765808
0.0741903
0.0884317
0.0773126
0.0808753
0.0802496
0.0778474
0.102893
0.105414
0.0981106
0.0985293
0.0609488
0.058755
0.0971222
0.0230217
0.0543993
0.0574105
0.00055735
0.107895
0.107271
0.107907
0.102306
0.0483884
0.0449378
0.0502319
0.0158997
0.0397073
0.037292
0.108433
0.106999
0.113086
0.093286
0.0931038
0.0924603
0.10038
0.0989966
0.0993333
0.0410635
0.103424
0.103061
0.0875809
0.0859374
0.0867118
0.000518417
0.0569173
0.0999213
0.0959094
0.103675
0.101807
0.102356
0.103186
0.106275
0.105648
0.0447212
0.039166
0.108509
0.000930181
0.118717
0.117915
0.0827527
0.0842571
0.0803714
0.00131053
0.0932582
0.0882341
0.000446594
0.000921229
0.00291232
0.11682
0.117474
0.116624
0.0882913
0.0459743
0.0515959
0.0959398
0.114142
0.0858174
0.0859622
0.0847248
0.107361
0.107185
0.0581116
0.000760029
0.0993123
0.0828071
0.0839258
0.0812385
0.0377106
0.0371107
0.0911311
0.0918334
0.0908967
0.0928926
0.0926186
0.0952669
0.09413
0.000482085
0.0550278
0.0309557
0.106815
0.103974
0.0205282
0.0186141
0.0683075
0.0691602
0.0682073
0.106248
0.106146
0.104533
0.100929
0.101906
0.0540318
0.0484346
0.0943105
0.000769365
0.000392853
0.0914455
0.0630471
0.0610567
0.0147625
0.0150527
0.089925
0.0490366
0.045762
0.0666206
0.106317
0.10262
0.0995707
0.0988578
0.0222244
0.0917382
0.0370023
0.116799
0.117272
0.0965359
0.0958395
0.0602872
0.0564466
0.000436389
0.000740358
0.082442
0.119333
0.119022
0.000347974
0.116835
0.117643
0.102155
0.0621384
0.0573038
0.0598773
0.119773
0.0905042
0.0943417
0.095045
0.0959898
0.0959508
0.05489
0.024056
0.0925591
0.0939767
0.0944127
0.0920174
0.0786111
0.0765715
0.10182
0.0966775
0.100681
0.0996558
0.121297
0.09429
0.0958277
0.00118579
0.00256212
0.0864722
0.0882158
0.0877201
0.0866588
0.0694275
0.0912673
0.11619
0.116948
0.0958941
0.0845222
0.0855177
0.0406656
0.0375801
0.0396031
0.0383116
0.104927
0.103538
0.102441
0.103093
0.0899796
0.091823
0.090578
0.091223
0.0617179
0.0624625
0.0638943
0.0604113
0.0560781
0.0601707
0.0558077
0.000810441
0.00154827
0.0695288
0.069909
0.0908734
0.0881685
0.0892994
0.0898172
0.0437621
0.0350071
0.112793
0.114843
0.108219
0.0484838
0.0897341
0.0920949
0.081334
0.0824546
0.0824796
0.0816412
0.108251
0.112054
0.0739822
0.0731254
0.0839459
0.0850143
0.073468
0.0711177
0.0704588
0.0740243
0.0901824
0.0907738
0.0899441
0.0909481
0.0277766
0.0200131
0.0868871
0.0889325
0.0886938
0.0869719
0.0877056
0.0851162
0.0845517
0.0866531
0.00163249
0.0425469
0.0407218
0.0468803
0.082693
0.0841086
0.0794671
0.0832152
0.0918359
0.0500629
0.0530679
0.0810342
0.0831408
0.0798809
0.080053
0.0826719
0.0823343
0.0621629
0.0896072
0.0897197
0.0890327
0.0903534
0.0695631
0.0673502
0.070178
0.0756772
0.0783896
0.0758487
0.0953175
0.0970488
0.0969529
0.0952689
0.119206
0.118691
0.11956
0.110904
0.108086
0.109305
0.106428
0.0898603
0.0898593
0.0903421
0.0894132
0.0871979
0.0865471
0.0858161
0.0877582
0.0562633
0.0621216
0.0655886
0.0811335
0.0837828
0.0816714
0.00953246
0.00985669
0.0734341
0.0566834
0.0286831
0.0333249
0.0730127
0.0704741
0.0443101
0.0567171
0.0950446
0.0942097
0.0739533
0.0762309
0.137163
0.137389
0.0210011
0.0791713
0.0771166
0.0798047
0.0709944
0.0667092
0.0241714
0.0717925
0.0713612
0.0299388
0.0367616
0.0813322
0.116162
0.115128
0.115413
0.115914
0.0129065
0.0126214
0.0782667
0.0739262
0.0776713
0.073316
0.0379867
0.0711458
0.0978221
0.0125089
0.0958957
0.0953256
0.0959107
0.0979788
0.096448
0.0501023
0.0456888
0.0513849
0.0794662
0.0782849
0.0827835
0.0793312
0.0807066
0.103302
0.104943
0.104495
0.103675
0.112614
0.114443
0.113333
0.0270819
0.0262859
0.0853971
0.0840215
0.0837578
0.0951782
0.0988327
0.107552
0.107123
0.107612
0.106941
0.0779385
0.0734564
0.0756472
0.0757783
0.0372481
0.0545136
0.0521419
0.0977596
0.0963139
0.0967033
0.0975413
0.0738429
0.07282
0.0743336
0.0721861
0.117857
0.118527
0.117911
0.095413
0.0952411
0.0971927
0.0973399
0.0986974
0.0992647
0.0967655
0.0265499
0.0232052
0.0227325
0.0277277
0.0622977
0.066239
0.0624661
0.0622103
0.0971197
0.0984739
0.0978785
0.0796695
0.0776121
0.068049
0.0644215
0.0661677
0.0662452
0.0188034
0.0148097
0.0815532
0.0788053
0.0798627
0.0803937
0.08404
0.0856951
0.0816184
0.10359
0.118926
0.0858584
0.0881316
0.0863538
0.0842336
0.085152
0.111381
0.107951
0.136583
0.075136
0.0751553
0.0727493
0.089717
0.0861588
0.0883175
0.0721985
0.0711958
0.0732326
0.0700138
0.0926182
0.0928258
0.0915581
0.0725644
0.0736009
0.0755058
0.0584968
0.0552462
0.0467251
0.0508444
0.0500542
0.0699852
0.0738386
0.0727893
0.0709115
0.0667662
0.0607219
0.064924
0.0915749
0.0925141
0.0930338
0.0911813
0.0424774
0.080131
0.0609161
0.0616
0.059027
0.0915997
0.0924229
0.0924697
0.091797
0.0668224
0.0701757
0.070015
0.067178
0.079742
0.0793818
0.0815234
0.011497
0.0101382
0.0118191
0.101967
0.104542
0.103468
0.104373
0.100782
0.111833
0.111672
0.11191
0.0508276
0.0878559
0.0900667
0.075005
0.0779886
0.0773788
0.0758228
0.0905928
0.0908184
0.0847038
0.0869573
0.0833463
0.0754234
0.0760101
0.0770546
0.0898181
0.0890232
0.08909
0.0896945
0.042293
0.0417457
0.0434521
0.0405093
0.0372252
0.0313937
0.0342702
0.0887255
0.0876517
0.0883057
0.109669
0.109365
0.0916167
0.0914957
0.0534927
0.0484259
0.0494025
0.0466175
0.0438062
0.0461395
0.0853241
0.0933168
0.0957186
0.0947982
0.0942312
0.0687464
0.0721347
0.0983611
0.0988519
0.0984122
0.0978946
0.086715
0.0878828
0.0869752
0.099683
0.100014
0.0997206
0.066672
0.0687748
0.0666938
0.0686116
0.0651075
0.0663443
0.0682042
0.0716142
0.0721414
0.100295
0.100784
0.099465
0.0846313
0.0842053
0.0838442
0.0665664
0.0686542
0.0699661
0.0655654
0.00872189
0.0108564
0.0786491
0.0433893
0.0523
0.032671
0.0894185
0.0887996
0.0919124
0.00090055
0.0134578
0.0926091
0.0953975
0.095311
0.121442
0.121502
0.0892185
0.0224217
0.0798469
0.0794915
0.0806743
0.0785874
0.117796
0.117269
0.119285
0.0788491
0.0751765
0.0773308
0.109599
0.110791
0.0884467
0.0861216
0.0867136
0.0879689
0.0732223
0.0717281
0.0756316
0.0931027
0.0927789
0.0938662
0.092106
0.0444936
0.0440769
0.0642136
0.0594156
0.0768782
0.0583572
0.0563401
0.0567612
0.0578115
0.0373397
0.0307765
0.0854153
0.082913
0.0845542
0.0834296
0.0906175
0.0908689
0.0915028
0.0865258
0.100744
0.100473
0.0999317
0.101429
0.0743543
0.0737145
0.0755243
0.0217776
0.0226598
0.088948
0.0899675
0.0886593
0.0927647
0.0944676
0.092674
0.0944373
0.0720393
0.0712975
0.0954559
0.102176
0.0998132
0.0993898
0.0987795
0.0981787
0.0758474
0.0782989
0.0770744
0.077148
0.0839692
0.083312
0.0639843
0.0698092
0.0661794
0.0681687
0.0679438
0.124088
0.121325
0.0568118
0.0560135
0.0917295
0.0931393
0.0929937
0.0917718
0.108607
0.10797
0.108149
0.108542
0.119815
0.0899794
0.0896519
0.0782375
0.0814229
0.080367
0.0789208
0.0706566
0.0732319
0.100002
0.107834
0.106339
0.109007
0.0968142
0.0955002
0.0963992
0.0960284
0.0346525
0.0668428
0.063558
0.0305841
0.025197
0.0753079
0.0788432
0.0785597
0.0765167
0.0283816
0.00417237
0.0901696
0.090735
0.0414866
0.0906136
0.0894645
0.0685447
0.0975959
0.100133
0.0758645
0.0788448
0.0487536
0.0446593
0.0799256
0.0852362
0.084904
0.086401
0.116321
0.0793274
0.0750617
0.0776302
0.0729086
0.0710988
0.0736566
0.0702017
0.123239
0.124464
0.0604877
0.0599882
0.0603829
0.062039
0.0582703
0.0563367
0.0574358
0.0553795
0.0585829
0.138805
0.0916927
0.0899028
0.0917134
0.0896622
0.0523228
0.062757
0.0566209
0.0605747
0.0593773
0.0685306
0.0689777
0.071064
0.0663194
0.138061
0.138245
0.0970172
0.0976738
0.098372
0.0265306
0.0239308
0.0362708
0.0918371
0.0897606
0.0899204
0.0915927
0.0969111
0.0977604
0.0109899
0.0665883
0.0537189
0.0493477
0.0530431
0.0491564
0.0723553
0.0705859
0.0733172
0.000397433
0.1068
0.106848
0.106015
0.108205
0.0981902
0.114531
0.082434
0.0980111
0.099528
0.0980336
0.094839
0.0955502
0.0863987
0.0890466
0.0867995
0.0677398
0.0818652
0.0832986
0.0804342
0.0976324
0.0986535
0.0975338
0.12056
0.115167
0.11349
0.113807
0.114928
0.0483999
0.0467792
0.0493664
0.0461121
0.000146069
0.0890588
0.0915014
0.0912516
0.0670146
0.0653282
0.0699152
0.0331669
0.00578012
0.0957201
0.0871622
0.0880621
0.104765
0.105814
0.0509773
0.0526917
0.050147
0.103668
0.104579
0.103004
0.105152
0.108718
0.0985561
0.100004
0.0995767
0.0989864
0.083248
0.0821841
0.0951266
0.0938196
0.0968434
0.0957042
0.0963396
0.0960609
0.0329164
0.0376055
0.03463
0.0545541
0.0547723
0.0529142
0.0563974
0.0809798
0.0792341
0.0796994
0.0801632
0.0240982
0.0907436
0.0890833
0.0896297
0.0178059
0.046603
0.0432726
0.0454057
0.0441824
0.0623082
0.06634
0.0621151
0.0915163
0.0909328
0.0914659
0.0787594
0.0787906
0.0610973
0.0628697
0.0585547
0.064664
0.103393
0.102368
0.103119
0.102593
0.102489
0.10047
0.101847
0.101139
0.088413
0.087936
0.0886273
0.0876811
0.00665117
0.00591891
0.00810732
0.0124194
0.051558
0.0491507
0.062939
0.0595754
0.0612113
0.0612381
0.0670847
0.108981
0.108564
0.107844
0.109862
0.120067
0.135826
0.134888
0.135168
0.13529
0.0880702
0.0891065
0.0875421
0.0120352
0.0327727
0.0349048
0.118118
0.118478
0.117452
0.0898481
0.0898028
0.0896589
0.000186812
0.0637408
0.0604263
0.0615147
0.10079
0.0932341
0.0933247
0.093343
0.068917
0.0702951
0.0702796
0.0938359
0.0973454
0.0988458
0.0975783
0.0985558
0.000440871
0.0688745
0.0650352
0.0681734
0.0637381
0.0701321
0.0670583
0.0717032
0.0812548
0.0830048
0.083777
0.082069
0.0393806
0.102765
0.101533
0.101949
0.102329
0.119277
0.0722874
0.0737278
0.000692616
0.121356
0.12104
0.0865546
0.0863036
0.0857827
0.0870621
0.0574329
0.0524523
0.0562951
0.0543067
0.0640376
0.0661979
0.133334
0.0927188
0.0946443
0.093887
0.0935844
0.0750529
0.0755491
0.0623035
0.0653437
0.058779
0.0544117
0.0540945
0.0576415
0.055883
0.0558493
0.00130562
0.0616843
0.0618731
0.0596712
0.0638153
0.101771
0.101628
0.102361
0.0385996
0.0344015
0.0766856
0.077103
0.114317
0.0808199
0.0820836
0.137233
0.115444
0.0861554
0.0853426
0.0864956
0.0848873
0.133056
0.138207
0.0408865
0.0100579
0.00981813
0.0239164
0.0508142
0.00556488
0.0110098
0.0112992
0.0246871
0.0908221
0.060747
0.138607
0.00943624
0.00990146
0.00557885
0.00493131
0.138595
0.138433
0.138458
0.138269
0.00870468
0.072303
0.0713567
0.122343
0.117841
0.12768
0.125613
0.0953888
0.098951
0.0162799
0.00763297
0.000325125
0.0789966
0.00104633
0.018959
0.00057545
0.0113513
0.00969233
0.130924
0.07941
0.0510951
0.0393047
0.0375395
0.000420628
0.139163
0.00482211
0.00473962
0.00561786
0.0869054
0.00454763
0.149044
0.144445
0.00719516
0.137923
0.000197965
0.0239809
0.0225086
0.0118434
0.0166028
0.0262009
0.120874
0.0928122
0.0222014
0.137348
0.137449
0.052319
0.0376589
0.0356387
0.0748764
0.0994455
0.135839
0.136454
0.0392533
0.0374812
0.129684
0.0106069
0.00160643
0.000328463
0.120444
0.118736
0.00151611
0.00675673
0.0368401
0.000953408
0.000427512
0.0048245
0.12154
0.114879
0.11822
0.118058
0.00340545
0.0418046
0.00623835
0.000239514
0.022685
0.114171
0.117983
0.0484187
0.00623437
0.00504151
0.00469111
0.130583
0.0528662
0.132202
0.12971
0.131063
0.167814
0.0178945
0.0951144
0.00401521
0.00500169
0.00093302
0.112691
0.00725309
0.0358176
0.0142877
0.0464904
0.043476
0.0429657
0.0343815
0.02069
0.0215189
0.0217117
0.0174648
0.0245702
0.0477918
0.00845096
0.00870339
0.0019516
0.0034652
0.0372905
0.0186012
0.0162079
0.00420661
0.00484995
0.0338832
0.0363841
0.0209508
0.01987
0.0208102
0.00209877
0.00949534
0.0147412
0.0010341
0.000340061
0.000516669
0.016736
0.000677257
0.000932089
0.000348703
0.00057684
0.00847626
0.00144754
0.0593111
0.0296734
0.0622588
0.0266046
0.00653857
0.00859363
0.0566024
0.0327903
0.110677
0.0296519
0.110961
0.032439
0.0924664
0.000736565
0.00587095
0.132954
0.00408207
0.0966533
0.079468
0.133148
0.132309
0.0517082
0.0107719
0.138346
0.123293
0.124337
0.0238615
0.0823819
0.0818179
0.132117
0.00423193
0.00896317
0.00315977
0.0053107
0.00581477
0.00527736
0.00946816
0.00422231
0.129916
0.0334025
0.00453045
0.00595895
0.00983126
0.0129668
0.0283587
0.0277407
0.0462752
0.110548
0.00814128
0.000185493
0.137866
0.137723
0.023014
0.0220497
0.0295588
0.028374
0.0326557
0.0781235
0.0239355
0.00961627
0.00151028
0.0135585
0.0555645
0.0520662
0.111067
0.0972105
0.00402618
0.00421566
0.134289
0.0647839
0.027977
0.0491744
0.0497858
0.00643301
0.074296
0.137965
0.0197698
0.0215151
0.0218253
0.13653
0.136865
0.0428982
0.0370918
0.00695288
0.073674
0.0765375
0.0375402
0.0337692
0.0136835
0.0154144
0.135124
0.136341
0.0658573
0.15056
0.143756
0.138614
0.138432
0.0135076
0.111645
0.00748511
0.00829877
0.0695181
0.00790645
0.0109606
0.0114778
0.0242361
0.112961
0.00857178
0.00964174
0.0234785
0.00618492
0.00658403
0.128854
0.0128457
0.0330742
0.0118384
0.0589883
0.136915
0.137002
0.00339688
0.11463
0.000896259
0.0325892
0.0936405
0.0949259
0.0667405
0.0330045
0.0325641
0.0112083
0.0196513
0.0279249
0.0660406
0.0242191
0.228198
0.184912
0.000494458
0.0387414
0.0388257
0.0374193
0.0374586
0.0108234
0.00326558
0.0842065
0.0399045
0.0691667
0.0703373
0.0652372
0.0266286
0.0143923
0.118446
0.122057
0.125256
0.13803
0.138113
0.0406753
0.0345328
0.0402561
0.0463676
0.0487538
0.0990691
0.092478
0.107108
0.0563525
0.0492782
0.0409765
0.112644
0.0440386
0.0641683
0.0660484
0.0681431
0.0624438
0.0286896
0.0947368
0.0936162
0.104323
0.138423
0.111273
0.109115
0.130674
0.118813
0.0194068
0.0320025
0.0238191
0.119671
0.118184
0.128383
0.01368
0.015725
0.0627783
0.0614994
0.0351239
0.0381207
0.0347295
0.0785511
0.0786188
0.0806221
0.0555968
0.0154809
0.0302906
0.0296192
0.0293708
0.0364925
0.136849
0.137238
0.136837
0.137233
0.0144109
0.0141459
0.118703
0.033414
0.0326984
0.0311612
0.0282252
0.0279539
0.0316869
0.0345474
0.0340632
0.137901
0.136223
0.135664
0.0972021
0.0800296
0.0672943
0.136417
0.0354031
0.0320035
0.0116329
0.102185
0.275847
0.214115
0.240144
0.0797461
0.0777739
0.0862745
0.0342063
0.0334277
0.0302499
0.00134609
0.214161
0.020194
0.0686835
0.0735369
0.0718197
0.0696267
0.00237773
0.136165
0.13672
0.010353
0.0513394
0.117481
0.138895
0.138953
0.112365
0.112328
0.000279424
0.0543284
0.0875922
0.0730537
0.0742182
0.074961
0.000398595
0.116626
0.119866
0.113934
0.137308
0.136925
0.052031
0.0489128
0.0518827
0.0225928
0.0481522
0.0721583
0.0729924
0.0709368
0.0937128
0.000689617
0.116669
0.114154
0.0167295
0.0033351
0.104411
0.109655
0.122181
0.118236
0.060042
0.0583308
0.0206375
0.133389
0.0612093
0.0594344
0.0624339
0.0619163
0.196738
0.186359
0.0451957
0.0438142
0.0412613
0.00797514
0.0100469
0.023348
0.0259246
0.0278902
0.0492981
0.0320659
0.0644687
0.0631546
0.0539786
0.117435
0.120195
0.00165539
0.0469889
0.0797823
0.0806742
0.0823905
0.0366369
0.0408911
0.0888465
0.138471
0.0124387
0.0676615
0.0713207
0.0705738
0.1227
0.12226
0.0132381
0.135222
0.0232413
0.00883049
0.0890402
0.0909566
0.0915398
0.0772363
0.0760957
0.095888
0.101444
0.0553684
0.0526542
0.0210282
0.0220993
0.0282859
0.0252945
0.0164921
0.0132442
0.0155294
0.0562111
0.0567116
0.031481
0.005213
0.106718
0.0513194
0.0509537
0.0533837
0.0108537
0.030713
0.124955
0.123825
0.0825918
0.0830841
0.0822515
0.0270642
0.0737391
0.00895814
0.00123396
0.138794
0.0857749
0.0402582
0.0375979
0.0405543
0.0481579
0.0356504
0.000504652
0.140403
0.0692648
0.0878781
0.0194383
0.0253072
0.0998729
0.0456506
0.0429221
0.0172593
0.0885828
0.0377465
0.00607821
0.123246
0.11798
0.0983805
0.0991726
0.105553
0.00158257
0.00601659
0.0654598
0.0200349
0.0499722
0.0541404
0.0433779
0.0435908
0.0605993
0.0613931
0.0671505
0.0182978
0.0190404
0.116973
0.113988
0.138912
0.138848
0.092449
0.0906704
0.00562709
0.0475629
0.0431915
0.0196287
0.0205805
0.0686688
0.0664816
0.00874586
0.0373018
0.0322721
0.0588604
0.064447
0.120249
0.117563
0.0961981
0.138559
0.138453
0.0657607
0.0645417
0.0739243
0.0728188
0.0467158
0.04297
0.105051
0.0205753
0.0228871
0.0710837
0.0745259
0.0755209
0.0740322
0.0827063
0.0811203
0.0827264
0.0822758
0.0809599
0.10046
0.101229
0.10131
0.0417166
0.0420512
0.126662
0.13477
0.135367
0.0155832
0.00915732
0.129854
0.127446
0.0431632
0.061539
0.0656634
0.0643285
0.0989345
0.136235
0.144574
0.00294403
0.0560314
0.0571124
0.0669075
0.117616
0.0361309
0.139059
0.140578
0.0915653
0.0341772
0.035631
0.0923503
0.0936428
0.0896709
0.0885689
0.0958433
0.0943281
0.0188296
0.0161951
0.0724269
0.0736312
0.139296
0.139243
0.139392
0.116227
0.0497497
0.124543
0.0574876
0.0622386
0.0724417
0.0695044
0.0217926
0.0667503
0.0651438
0.106396
0.10791
0.0493654
0.124482
0.0283061
0.0291717
0.138467
0.138283
0.102797
0.100019
0.0988689
0.0989289
0.0993159
0.0234559
0.0261673
0.116559
0.0419806
0.0447303
0.0749107
0.154673
0.166205
0.0586867
0.137982
0.137653
0.04267
0.0305445
0.138559
0.096634
0.0978925
0.0974175
0.0490186
0.0507826
0.0610022
0.0649585
0.0654075
0.0626076
0.134707
0.00602506
0.0785995
0.0789447
0.0760665
0.0789932
0.034291
0.117701
0.114985
0.111372
0.072955
0.0696054
0.0716209
0.121776
0.117344
0.112712
0.111889
0.113296
0.113062
0.133467
0.134734
0.134242
0.0876102
0.0771571
0.079317
0.0809938
0.0232579
0.0210401
0.0238734
0.11623
0.102146
0.108571
0.113745
0.0691063
0.138813
0.130789
0.128752
0.0326275
0.0358923
0.0811582
0.0829114
0.0911125
0.0901664
0.0891569
0.121985
0.124371
0.118034
0.0860174
0.0870902
0.087367
0.124052
0.12489
0.125937
0.0720411
0.0702716
0.136982
0.137324
0.137499
0.0826692
0.0803187
0.0797608
0.129159
0.130191
0.0877714
0.0884204
0.0123865
0.0775021
0.0778494
0.070259
0.0705884
0.0206219
0.0229794
0.0678873
0.0696494
0.0691521
0.113279
0.202191
0.256512
0.0505155
0.00295364
0.0668605
0.000876082
0.0863762
0.0873776
0.0649265
0.0221076
0.13317
0.138144
0.13822
0.12291
0.123938
0.0587518
0.0580858
0.13859
0.115446
0.11512
0.0107099
0.136451
0.137379
0.137772
0.100087
0.0992292
0.132086
0.10723
0.10514
0.126977
0.123153
0.131434
0.131571
0.0646703
0.0652864
0.0847625
0.0868181
0.0179791
0.0963452
0.101262
0.180843
0.153048
0.0973996
0.0973867
0.118057
0.11157
0.115286
0.114468
0.154901
0.141668
0.141732
0.056907
0.0559781
0.0570134
0.0778629
0.077804
0.014501
0.135043
0.140794
0.12763
0.0788389
0.0756801
0.0756883
0.0754844
0.121665
0.124153
0.12356
0.0517752
0.0548947
0.0781331
0.0789904
0.108584
0.109906
0.034553
0.038024
0.0862931
0.0853705
0.0412411
0.0422153
0.0446074
0.108046
0.112479
0.107105
0.0259207
0.0726696
0.0724554
0.0722991
0.0652086
0.0656712
0.063901
0.0555509
0.0587205
0.151386
0.0375274
0.0409814
0.0830751
0.0836616
0.0729524
0.0730116
0.0739478
0.079216
0.0767843
0.0746822
0.0823551
0.0810408
0.04068
0.0418511
0.0575887
0.0606918
0.0625447
0.0679689
0.0700375
0.0246937
0.0398356
0.0426288
0.0255771
0.0231182
0.0256439
0.00077551
0.137399
0.136552
0.135804
0.138236
0.138526
0.114616
0.0172394
0.0152643
0.0113702
0.013332
0.06021
0.0737672
0.0691703
0.0634719
0.0767478
0.0774339
0.0581237
0.0538394
0.0516387
0.293965
0.246142
0.0275286
0.138954
0.143553
0.0489284
0.138122
0.0427009
0.0450011