/*--------------------------------*- C++ -*----------------------------------*\
  =========                 |
  \\      /  F ield         | OpenFOAM: The Open Source CFD Toolbox
   \\    /   O peration     | Website:  https://openfoam.org
    \\  /    A nd           | Version:  6
     \\/     M anipulation  |
\*---------------------------------------------------------------------------*/
FoamFile
{
    version     2.0;
    format      ascii;
    class       volScalarField;
    location    "600";
    object      p;
}
// * * * * * * * * * * * * * * * * * * * * * * * * * * * * * * * * * * * * * //

dimensions      [0 2 -2 0 0 0 0];

internalField   nonuniform List<scalar> 
29874
(
2.94963
0.176526
0.160962
-2.94268
0.181979
-4.55162
-1.18261
0.726911
2.55707
0.596969
-2.42105
-0.042268
-2.02351
-0.279015
-2.17394
-4.3791
-2.97083
-3.28314
0.378565
-0.00768421
3.22202
-1.81769
1.2338
0.88459
3.85841
-0.694195
-2.1362
0.276774
0.473179
-2.7364
-2.58094
-3.7257
-0.611796
1.00533
2.9115
1.4691
2.87549
-1.70659
1.44258
-1.03866
1.00906
1.18327
1.44112
3.24371
-2.49495
1.79046
0.99111
-0.826641
-2.93619
4.19718
-0.383898
-2.50369
-4.13557
2.55929
-0.313552
-0.804714
-0.67964
0.846785
1.78387
-2.2591
-0.674172
2.19493
1.53131
6.1728
0.300129
1.02724
0.372875
1.19275
0.667253
0.580438
-1.9772
-1.49632
7.62172
0.53894
1.23971
-2.64898
-0.94879
-2.39072
4.59525
2.64082
-3.42147
-0.29486
1.02954
-1.5917
14.7734
12.5679
0.469023
0.274336
-1.80253
-1.01085
18.4292
1.18767
1.25476
-0.595795
0.151892
3.01567
0.538429
14.5801
19.7889
-0.279121
-0.325732
0.508704
0.962429
4.71668
6.41303
19.6326
17.8244
0.18123
0.695363
0.339156
18.0988
-1.64043
-1.79901
1.13378
1.0362
1.03729
2.0212
1.65904
24.4261
1.7046
1.38775
-3.53531
-0.0503315
-0.124937
-0.119482
3.415
-1.25959
1.33495
1.7057
3.92535
0.735365
3.03618
2.60137
1.17112
0.795062
1.56972
1.0532
-0.185747
-1.70954
3.4955
1.00128
1.53411
-0.567314
5.61257
0.958653
2.92301
-1.20904
2.04951
0.583514
1.80858
-2.19213
-0.87433
-3.36586
-0.234267
-0.609714
1.17162
3.87393
-2.20592
-1.81546
-1.96761
-1.51592
4.43343
7.22661
0.871553
0.669928
0.976383
0.560408
3.4154
3.97567
1.05819
0.814325
0.656827
0.88916
15.9853
17.2494
0.78874
0.530852
26.075
3.90613
3.99812
25.7679
25.8134
-1.49894
3.383
4.26231
-4.6167
0.438798
0.50814
-0.187632
0.945017
0.960717
-4.9139
3.45685
3.58517
3.31595
1.8026
1.49306
-0.486144
25.6088
25.7231
-1.61336
-5.64623
3.34867
2.85477
2.27702
2.79585
2.29879
-6.28288
2.17823
2.29
2.10386
0.552498
5.17827
3.45267
-1.42423
1.45053
0.67134
0.488111
0.505151
0.720999
-1.0121
-4.70142
-0.284009
2.23941
0.815345
0.50514
-0.344112
-0.158246
-0.627788
0.798995
0.827543
0.771172
-0.00416587
-0.547643
3.42178
3.54804
4.45882
-0.607741
0.37936
-0.620391
-1.82178
22.4299
21.7451
3.9971
2.6316
21.1913
21.436
-10.6362
2.62039
-5.85016
16.3272
2.01183
-9.33858
18.5298
0.21249
20.8265
17.0006
23.3909
-6.05828
17.1265
-3.62897
18.6553
16.7566
-4.09849
-5.40777
-6.93489
-7.31505
3.17003
3.31167
24.6969
20.6859
21.0476
-6.42586
-7.86722
-0.778269
3.47766
-5.7561
23.9141
4.22578
-0.221787
-1.25459
0.0505879
0.551557
2.21695
1.92667
3.69481
1.07781
0.659875
20.5849
20.3538
4.6749
3.22322
3.32976
-8.84447
-9.083
16.8392
16.857
-4.479
-8.40178
-8.37805
-7.75478
18.4668
3.19054
19.9384
3.37451
3.39047
20.4121
2.18071
-4.464
25.3305
-9.7206
-9.61289
-4.86414
-5.4994
-5.03135
17.5139
17.4714
-4.53881
3.58096
3.65433
-6.06848
-11.7041
20.3496
21.5304
4.00867
4.04951
4.35339
-0.620121
17.1087
16.7789
3.50639
2.88789
17.7563
17.7618
-9.57387
-5.53147
2.85644
2.33544
2.34424
2.20349
21.2143
-4.66298
21.5826
21.261
21.3534
21.4474
2.03398
2.42117
-10.6102
3.29305
1.99621
-3.1733
-9.68821
-8.90259
-9.0216
0.422727
20.866
20.5155
8.72128
24.7274
-4.2896
21.0411
-6.84531
21.4257
21.4834
3.1856
3.25962
3.08086
6.18716
20.3022
20.5706
19.6938
20.2514
0.877634
0.673863
19.8903
18.751
18.5824
18.9699
18.2611
21.3716
21.7503
3.41266
3.21866
3.24491
3.00709
-2.50255
2.06526
1.96737
1.67337
-7.51894
-8.74994
22.1191
-6.23655
-5.49889
-10.3884
-9.79841
-10.6586
-10.7274
2.89834
-6.50613
-7.07828
-6.50756
4.64014
4.61405
4.11358
21.4425
21.146
21.0265
20.9526
15.8801
17.1327
16.3629
16.0028
1.74563
18.7582
18.0517
19.3304
19.8368
21.2178
21.4595
21.724
16.9685
18.0249
16.0181
16.9876
17.9627
16.5521
-0.80112
-0.00677168
-5.09388
-5.86446
-6.08051
-5.41947
18.0848
-4.1554
-3.74088
17.0805
17.3779
19.1684
18.4521
18.3177
17.9239
19.8723
19.9179
1.6582
4.36892
4.44317
4.7142
3.66794
20.108
19.92
20.8158
15.4759
14.9041
15.46
-6.4592
-6.05459
-6.59816
-6.00376
-6.82415
-5.69598
-7.47833
-6.65365
17.7293
17.3871
17.8704
3.31622
1.09833
0.974891
1.04488
0.913702
1.67734
11.8217
4.0309
3.92791
3.76763
19.5602
19.8477
19.043
-5.84837
19.8997
18.8062
19.1216
19.1402
1.12436
21.3682
21.6968
21.5305
20.9597
-2.13227
24.686
-5.00918
-2.45809
26.0476
-0.547008
-2.4891
0.582652
0.661296
0.674556
-2.85598
-0.925461
2.6372
2.31715
-0.325581
5.68911
6.26404
4.34281
4.71057
-1.92235
1.49032
1.60822
10.881
1.02347
1.10906
24.769
0.591525
-4.34367
24.0283
-0.275286
0.972214
-1.20762
10.7453
-1.79992
-1.55905
-1.8057
1.1094
0.602584
-2.03396
-2.1976
-2.1882
-2.07015
3.68344
3.78381
0.300882
0.388947
-0.44815
5.11645
2.83131
2.91041
-0.228492
-0.293048
24.1728
24.5771
-1.34788
-1.30423
-1.93794
-0.195272
0.179426
3.29476
-3.92908
0.767177
0.86703
-0.147359
-7.83002
-8.52564
-6.89042
9.43433
0.646459
-4.33587
-2.47002
-0.390762
-0.383472
-0.306572
-0.695995
24.9604
-3.09424
-2.78521
14.2685
13.4762
21.7376
-4.13724
-0.721239
-6.85803
-4.58002
-1.2546
-0.974293
1.21162
14.1183
-4.68879
-5.37264
7.66678
8.67088
-0.495275
2.69116
2.68761
-0.597805
0.641068
1.03748
0.861114
1.0802
-5.08702
-5.71186
17.909
18.2465
2.34899
1.93239
3.97916
4.37695
24.241
0.19867
-4.08305
2.0542
2.21605
2.43039
0.58753
0.650911
1.5227
1.54378
1.42155
18.9537
19.4041
19.0147
1.92902
1.97186
1.82807
2.1592
-5.80586
-5.24021
-4.99465
-0.463323
21.0073
3.95671
3.77914
3.49208
3.82282
18.3823
19.3392
9.49976
10.4915
3.28516
0.102488
2.90086
2.449
-9.44685
-9.99551
12.6308
11.8394
11.0246
16.6778
16.0765
1.79993
1.8906
2.06922
-2.51901
1.46586
1.13979
4.52704
5.32075
4.94344
-0.817571
-0.983339
6.2145
6.26726
6.91608
0.878811
-3.42575
-3.27491
-3.06587
24.7075
24.7955
0.10835
0.251045
0.566337
19.1651
19.3726
-0.884976
-1.34264
-0.536617
-19.0563
-18.2547
6.1383
-11.001
3.01796
19.5756
3.68959
21.81
19.4575
2.34368
5.66131
4.90959
-12.514
3.50732
3.46747
3.78821
3.80735
5.74181
-5.07214
-2.50289
18.0347
16.2191
3.26408
2.94645
-12.7816
-12.8993
1.06264
-9.03949
23.746
22.5677
23.2581
23.5687
1.40249
-2.02527
-1.46016
12.0834
18.6476
-1.72927
23.0468
-0.369758
19.9992
5.77698
16.4518
16.7871
0.517021
-6.00794
-12.1578
17.1194
17.332
1.25078
-10.1939
2.62912
3.20228
2.14511
2.674
-5.72098
-0.915539
2.62409
1.50532
-0.69752
-1.03526
-12.1972
-11.8243
-1.80067
-1.25628
-11.2617
3.78176
3.64892
-14.1348
3.53859
-7.97655
-33.9
3.91636
1.17855
-4.18567
-32.0576
-22.8703
3.65958
-16.6469
-14.7106
19.8734
6.3331
6.57416
-0.949452
18.2968
18.0831
3.45331
2.27946
14.7505
22.0047
21.7903
-3.22371
5.22245
4.95934
-10.0415
-9.80472
-9.03214
-8.47066
-2.5224
0.983367
15.7431
15.5979
-4.53654
0.274861
-4.56393
1.1586
0.969739
14.5301
13.3654
-5.92009
3.03024
-5.63173
-4.48951
3.82307
16.5018
16.6061
4.61035
-3.16342
-12.0758
7.66502
-13.731
-11.6935
-11.7534
14.5861
14.7194
-15.7593
-24.6036
-11.791
15.1357
-17.7951
5.03141
3.082
-2.86801
-3.90047
4.85516
18.1556
14.958
2.60844
-20.7606
-2.81262
-0.279125
2.71552
4.27714
4.52382
-7.50773
-7.42305
3.50574
15.7249
2.89134
0.762277
-0.791947
6.01272
0.667323
22.3154
19.4413
-8.19828
-5.35718
-2.08327
-1.67958
13.6121
12.408
-0.406274
-1.19386
2.05775
-9.08568
-9.26295
-12.7565
-12.7304
1.54265
0.516067
0.343396
3.05213
-3.68372
-2.94203
-4.62238
7.33435
6.84533
6.06902
-0.913515
-1.3854
-14.0886
-14.3749
4.47935
-0.912651
-0.900711
21.6155
21.8864
21.6573
-11.8525
6.22199
4.4295
6.918
5.20784
14.4282
14.2896
-10.2732
-2.40707
3.6019
-1.36441
-8.64128
-9.33362
5.82028
-3.75378
-12.1433
3.04904
-4.79935
-5.21975
-10.0079
-10.6904
-17.4385
13.4905
14.6343
16.2861
3.15303
-11.3019
3.16785
2.86434
5.42919
6.43084
-5.13957
-5.11101
-7.68512
3.25631
3.46576
2.96433
2.8777
3.06117
-2.23218
11.9229
-20.2293
1.25289
2.90587
3.06459
-7.85121
-8.01143
2.2231
16.7711
-11.0808
-11.8947
-11.6306
5.06271
19.7723
4.04278
2.36861
-22.2075
15.1965
12.4207
3.89931
3.82144
3.88483
1.15241
-1.38714
-19.9805
0.217277
0.923052
-3.89599
-11.9742
-11.785
-2.26086
-17.6577
-1.67337
-12.1904
-10.2962
17.8953
17.467
23.9634
-11.8499
-11.5653
-11.7438
22.2106
14.4202
14.2259
3.24088
-11.8284
-7.53628
-8.09957
3.99938
-2.28393
6.48818
21.0382
-11.7578
3.21046
-0.437032
4.71164
4.3756
2.12554
2.27297
2.51658
-12.3128
22.3101
0.469692
0.896118
23.6905
2.00864
-3.37169
2.03742
1.94611
-12.4868
11.3452
0.799232
0.704658
17.8292
-3.60601
-4.56559
17.0212
-6.37396
-5.6463
2.25149
4.86704
17.0858
16.8845
17.4743
15.8795
3.11687
2.18974
0.878593
1.1591
-2.95319
-3.3556
-7.20637
-6.04581
-6.79704
16.1047
16.4343
19.607
0.985951
1.26105
-12.493
-12.6424
-8.60681
-9.03861
-4.68214
-4.04853
-3.50933
-4.27438
-3.58626
3.64543
3.15601
15.7313
16.45
-8.63811
22.4292
17.9159
16.8549
-12.7592
-12.1824
-11.7067
-9.73141
3.88321
3.54608
3.70362
3.71607
3.54479
-8.58628
2.6374
2.9162
3.16811
-2.98578
-3.60256
-4.07552
-3.3245
3.04349
-12.4124
-11.6092
4.27611
17.5153
5.17322
5.77776
5.39144
16.8982
15.2565
15.1977
16.0668
16.4549
0.118774
0.701248
0.277133
-1.02748
-0.622025
-1.89481
-1.89375
19.3299
19.7365
-12.58
-12.3375
-12.1714
-12.2587
-2.04066
-0.813845
-1.45335
3.49691
-1.82446
4.60865
15.1758
-6.68644
18.7366
-11.8131
17.0401
17.0925
3.22034
3.3407
3.29631
2.39845
2.44537
2.99942
21.5498
2.70505
2.61949
2.78433
2.60975
2.61679
2.56318
2.45821
-3.70055
-3.29581
5.80089
23.5138
4.35946
-7.14977
4.505
14.7776
-5.47889
3.79501
-14.0596
-1.0975
-0.951842
-15.2765
16.1381
16.0339
16.0504
3.1379
2.0396
2.42591
3.61105
3.24686
2.04161
1.91139
1.87864
16.339
5.60653
5.1485
-7.73375
-7.1065
2.72173
-8.0733
-8.61736
-7.88146
-1.67709
-2.20197
-1.40997
24.236
-13.7487
23.1776
3.63608
3.15879
2.94126
2.38699
21.9521
17.4343
17.6874
3.6682
17.2159
16.5091
16.0859
16.5169
1.5158
1.93936
12.9212
12.8907
-11.6568
-11.7591
0.90813
-2.31851
-5.34712
-4.27393
23.4704
4.6059
4.32033
4.49842
1.65386
-9.73254
-9.7354
-9.29604
-6.61116
-10.689
-10.5742
2.06814
1.68529
5.30755
3.57402
3.71355
3.56409
3.50688
3.44928
3.45143
21.9417
3.38871
2.9881
3.29094
3.1127
3.28867
23.6664
19.3053
-0.137354
-1.17303
3.26042
3.44996
3.2673
3.19013
3.61804
2.97248
16.0243
16.2944
3.4796
20.9274
5.05045
4.5777
-10.4262
-11.1593
-11.5508
22.7073
4.58192
4.35337
23.8825
23.8673
23.7154
7.76933
7.47183
7.59945
-1.4694
-6.93008
-6.07979
4.44165
4.03838
15.8752
16.0509
16.3042
2.051
1.24221
15.7922
25.2955
6.1368
-10.1768
-10.133
-8.99995
21.9579
22.0255
3.98982
3.95353
3.81627
3.58188
3.42232
3.52492
14.1214
23.9218
1.71761
20.3695
5.49816
5.53807
-11.989
-12.6985
17.8321
17.6532
2.292
2.04753
1.42969
0.795733
0.502094
1.40303
-9.39281
-8.63229
-1.32776
24.7183
24.2062
-12.6726
16.7863
16.4216
-14.9817
-14.9236
14.9692
-8.10894
-8.89793
18.7909
1.53044
1.6581
12.4938
12.772
-11.4979
-12.5522
21.6234
6.24191
6.28244
-0.914681
-1.13075
-9.96844
-9.70769
24.2177
24.2091
-12.208
4.88003
4.39914
24.4014
4.47079
4.76155
11.9376
-13.7512
-14.3459
-13.4748
5.20522
3.76322
4.02328
3.48148
3.48152
3.56995
-8.39759
23.0702
3.50944
3.77155
3.84495
3.81374
2.49126
2.2057
2.50547
3.42921
0.649566
0.694654
7.00748
3.44062
3.49028
21.2993
21.646
-10.9904
-11.4932
-11.8765
-11.6996
16.9826
-12.2165
3.36977
3.50741
-1.33951
16.0938
15.9774
21.5255
21.9107
21.5217
21.467
3.21195
12.0198
11.607
11.4057
-2.96174
-2.50095
-1.95224
-1.43639
15.8942
15.0798
16.136
16.7004
-6.79109
-7.36289
-7.66958
25.6459
25.9265
18.6492
18.4877
14.7232
15.0377
15.0038
14.9581
-15.2166
-8.50607
0.206041
0.108937
-5.41533
-6.46524
4.49299
4.71242
-10.3354
-10.2356
-9.9076
-8.87619
4.78148
4.63198
2.08872
2.06806
2.88124
2.98017
16.5953
17.0077
16.3994
15.7937
3.7097
3.59108
3.50209
3.61718
-1.22612
21.5303
3.01297
3.19735
3.31835
3.23576
6.82113
-11.0518
-10.3793
-11.021
-6.04289
-7.10213
-6.69533
-7.02753
15.4524
14.8366
15.2915
-4.7514
4.28668
-6.40246
-4.57813
-10.1876
-10.178
-9.5675
16.4326
16.1375
16.4478
-8.56452
-12.4891
-12.3161
-12.4077
-12.336
-10.6599
-10.0491
-10.7171
16.5565
16.1398
15.9554
-1.63331
-1.13038
0.513807
-0.0930507
4.71891
4.68579
4.63192
1.85388
2.0462
1.55839
4.18992
3.97263
3.77752
3.78067
3.76003
-11.9534
-11.6936
-12.0608
-12.1879
-8.96738
-6.99249
-6.2911
16.5516
16.1377
16.1047
-3.31748
-3.77265
-5.34537
18.5032
-4.4847
-4.83049
-6.17075
-6.57322
20.1071
19.4752
13.9987
14.1151
17.8358
17.4045
2.12666
1.92621
-11.239
-8.899
-7.96519
-8.65342
-13.2224
-13.7721
-11.135
-3.03247
-3.73629
-6.50552
-7.15489
-7.56382
3.26183
2.94312
3.68796
3.60386
-24.0854
-23.8338
-11.7292
-11.7757
-10.7428
-11.6424
-8.54136
1.84805
3.47089
-23.5649
13.44
13.8372
3.83561
3.7448
3.62466
20.2388
20.2221
20.0899
-9.02322
-7.93842
3.13675
2.90005
3.08694
3.20677
2.97031
2.93277
2.90257
2.9192
3.07281
3.16916
-7.16671
-7.42966
15.8809
15.9773
16.2357
1.87217
1.27918
3.33229
3.64844
3.95149
3.35924
-9.274
-9.05989
-9.16811
-8.55781
-8.05436
17.2529
17.3231
0.369622
-0.230302
-1.14816
-0.437453
18.371
18.0046
17.6529
18.0527
5.43968
5.37951
5.52427
-1.66136
-0.552499
0.210903
0.12464
0.346021
-0.0635288
-0.63484
16.6127
17.6627
16.9955
17.2972
19.6215
-6.7677
-7.23462
-6.57082
13.7389
13.4734
13.0398
16.0367
16.6255
-5.5767
-6.46705
-6.08123
-5.95164
-5.42782
-4.74764
3.45853
3.12763
3.33567
3.2065
3.92207
4.32722
3.72032
5.21444
4.77869
3.04973
3.25709
15.2685
15.7504
15.4415
0.7668
0.489196
2.29223
3.07276
3.03612
3.17723
14.2435
14.7001
14.6775
-5.76791
-6.1909
-4.54794
-5.53805
3.75442
3.78069
3.68414
-8.01041
-7.59876
-8.38306
18.1733
18.3023
16.5378
16.4112
16.2022
17.2835
16.8466
16.8565
16.7373
18.0224
18.2654
17.9498
3.39805
3.45027
3.4349
3.29401
-10.3838
16.452
16.7218
17.2426
17.0786
-12.6468
-12.6739
-12.3928
-12.2223
-3.32836
-2.9722
-4.21812
-4.43838
16.6893
16.6719
15.9666
23.0886
23.0939
23.1484
1.69993
3.00006
2.69475
2.81371
12.6184
5.27857
4.99249
4.05767
-5.92764
-12.3248
-0.14125
-11.2396
-11.4286
-11.0427
-10.4532
-12.6615
-12.6599
3.79651
3.80061
3.5261
16.5959
16.4503
16.3015
3.70801
3.6459
3.55807
3.77018
21.855
21.9405
21.6274
21.9054
-5.72008
-5.43354
-5.13007
3.89966
3.8045
3.87881
5.4336
4.55839
4.38793
4.33822
-7.80478
-8.02623
-7.38384
-8.99311
-8.80686
-8.9342
5.69961
14.6927
13.9505
13.8751
14.2917
-4.95444
-5.49388
2.86002
2.59451
3.81023
0.189641
-12.0314
-11.8237
-11.3744
1.3281
2.34473
0.990942
-7.36409
-7.01392
-6.38795
-6.44134
-10.4193
-10.6946
-13.4504
-13.164
-12.5115
1.21623
0.881289
-0.0300808
2.99936
2.95829
2.92983
-9.07594
-8.70441
-9.10437
-8.84855
-22.2572
-21.548
-1.49236
-7.5375
18.3034
21.4966
4.20835
3.88787
4.21337
21.7311
-25.107
-0.212232
0.271617
-0.429157
7.14619
7.35647
-0.686752
24.0645
2.60918
2.50185
2.78756
2.65267
1.76745
1.36842
1.45954
-4.65033
-5.69619
-5.23467
2.47116
3.18398
3.56283
3.44841
3.2152
3.41445
-1.46055
-1.754
-1.52213
3.55073
3.4733
3.4959
3.40799
-10.1965
-9.33943
-11.3983
-10.7091
-0.480051
0.99077
0.588113
1.01698
0.970834
-6.48515
-5.98788
-10.8541
-10.5381
-11.1732
-11.208
-0.685118
-12.5754
-12.6016
4.74465
3.03526
3.34076
3.53081
3.23567
17.5707
18.0338
17.792
-5.02327
-4.66944
-11.6574
-12.1669
-12.1
-2.38258
-1.93536
-0.774795
-0.303971
3.48228
3.09617
-12.0833
-13.6744
-11.9671
3.42976
3.39548
3.48257
17.0356
16.4483
16.2965
16.8917
16.1785
16.2136
2.51975
-2.724
-3.48765
-3.64519
-3.70144
-3.8095
-4.09868
17.162
17.5717
-3.15418
-2.06671
-1.31556
-1.47378
4.76526
4.2154
4.60085
4.80525
-2.44232
4.92988
4.97313
-9.84228
-10.3633
-10.3596
-10.4134
-10.9485
-11.2956
1.50653
2.72272
3.09993
2.92778
-0.276295
-0.70152
-1.22324
-1.23543
22.3029
17.4933
18.2954
-11.7019
-12.6838
-10.1555
-9.44507
-9.87007
-9.02915
-21.0278
-3.67453
4.25377
4.35636
-17.5327
3.45409
3.38391
-7.32362
4.56008
4.57233
4.23439
4.30106
20.6939
20.9641
2.54638
-11.2086
-10.4333
-11.1108
4.1061
-4.07665
-4.56713
-4.61541
-3.33665
-4.00154
-2.23095
-2.76515
2.40571
2.18049
18.0726
-7.89232
-7.49391
-6.80582
-7.5738
16.4866
16.0059
16.9187
16.9903
3.43839
3.41256
3.2785
3.55502
3.59032
20.7811
-5.17142
-4.78679
-4.86816
-3.94056
-7.74781
-8.5942
-8.91831
-8.53646
1.58681
1.51833
13.6132
13.1602
13.6552
-5.43917
-5.29102
-8.20848
-2.69253
-2.90376
-1.62645
-1.40534
0.074075
-0.71643
21.8618
18.0145
-6.56683
-5.90182
-6.38284
-6.85018
16.6258
16.8965
16.3534
22.9562
3.77657
3.94264
3.77309
1.30142
1.24078
3.55156
-4.90696
-0.849155
0.733638
0.293349
3.75499
3.56422
-2.62706
-1.98009
-3.1677
-13.698
-12.7586
-12.7255
-12.8412
-0.5269
0.698094
-0.250814
3.03389
2.78757
3.12033
2.46095
2.76783
20.7273
21.1056
21.1049
21.3789
23.5646
-1.95125
-1.25284
-2.28109
3.02513
3.33537
3.56136
22.4629
23.6535
5.163
-12.0191
-12.2331
1.70858
1.79803
-11.6718
-11.8465
-11.4484
3.2987
3.39663
3.64951
3.46472
2.49821
-0.27772
-0.128237
0.77715
1.24737
2.89442
2.67889
13.9658
14.1039
3.61455
3.69265
3.58822
3.56431
-9.69897
-8.85676
-9.82173
-8.73556
-8.55648
-8.41552
-7.70116
-8.54527
-7.80048
-9.02046
-9.15049
-11.1023
-12.7655
-12.8181
-12.4916
21.3016
21.0722
21.1715
20.5277
20.8398
-9.70558
-9.80398
-9.25846
4.17051
4.11449
4.19529
2.41492
2.43747
-2.47475
-3.16804
-2.92122
-3.76376
1.4931
0.899359
2.83232
2.49581
0.559848
0.0442616
0.55281
0.874376
3.45086
3.51274
3.5298
3.30621
-3.79055
-3.75442
-3.86036
-16.1348
17.7603
17.9959
-4.35727
-5.06547
-4.8661
-4.35109
-7.26864
1.28747
0.665018
1.44332
1.18836
6.05941
5.09491
5.91007
5.44766
5.00889
-11.7847
-11.7159
-11.1675
-14.7445
20.6012
20.6414
4.01549
4.01016
3.58099
4.69199
4.78716
4.65256
24.7864
-12.3751
-12.777
-12.9516
1.95842
-12.4942
-12.7245
-12.7281
18.5679
18.4144
18.2218
-12.5623
-0.910889
-0.3405
0.68609
1.04316
24.5151
-11.242
-11.036
-10.1287
-11.8345
4.25673
4.10136
4.16214
16.5553
16.4139
-11.5471
-11.4804
21.8658
1.24946
0.397604
1.59949
2.49804
-8.45799
-8.17186
-7.92616
18.0614
1.51213
1.52962
3.30599
3.38731
3.15731
3.28342
19.9771
20.4554
20.2596
20.7146
17.4058
16.2296
-7.82029
-1.55215
-0.879733
-1.53813
-1.65882
17.0306
17.397
16.9601
16.9762
-6.19503
-6.2736
-5.7697
-5.3059
-5.61189
-5.7984
8.12583
-7.62996
-8.0322
-8.00157
-8.53224
2.42932
3.35968
3.58996
-9.41661
-8.88204
15.5354
15.2497
3.67319
16.6441
16.6818
0.634385
4.96533
2.94331
2.95591
3.14461
3.03115
-5.84987
0.220167
-15.6651
24.101
24.1083
21.5191
-16.5639
24.2032
24.106
24.0789
-20.7368
-0.328889
-14.805
-0.0691066
24.0014
22.9841
23.5866
23.7665
-1.84328
-0.0075076
0.0179208
0.0880951
24.3063
-4.94481
-4.19782
6.44979
7.36377
-4.11217
-4.60031
-1.12334
-0.231091
21.9325
24.3141
26.0728
-0.493615
24.2455
23.2027
23.6286
25.1101
21.1393
6.987
2.59295
-15.6963
19.1619
22.0464
26.204
0.44272
24.1383
24.1223
24.1129
-2.21504
24.0051
-4.24525
-4.68109
23.7954
-4.20337
23.9107
-9.32576
-9.73516
22.2884
21.5552
23.0102
0.917024
-2.93572
22.1954
1.03945
0.814135
-16.3719
21.9666
22.5955
0.423599
-0.566493
0.614877
0.856097
-18.6481
-19.088
7.54644
-21.5801
24.5328
24.6519
0.382089
0.115268
25.9779
24.5366
-19.2354
22.4294
23.9139
23.6818
10.0668
11.6723
10.9567
-6.95564
23.5785
4.12317
24.4611
24.7757
22.3561
8.70605
8.01899
20.6695
24.466
25.2708
25.3485
0.863629
-5.619
6.04632
6.99672
6.3584
-3.65659
21.9104
-1.51118
24.5875
24.5243
24.6054
7.21499
21.8016
22.3011
22.1149
19.1888
19.1967
18.9844
22.3422
23.4006
23.3503
22.9859
23.3675
23.1585
19.5433
24.2193
24.2176
20.1653
19.2507
22.0433
23.2164
23.6158
23.6481
23.5843
17.2046
17.3092
22.8695
23.0372
23.0965
24.6253
-26.4814
23.7824
22.543
24.7342
24.7696
23.3093
25.6191
25.531
26.1644
26.1105
22.3531
25.505
1.70911
-20.0765
-12.0907
23.0123
-23.0092
-22.158
-11.6714
22.314
3.41335
23.2208
-0.978169
22.4495
4.26682
25.0225
24.3916
1.43219
24.6035
0.344847
0.0215878
1.97608
2.26413
20.8884
24.0434
-2.78092
0.746184
1.04441
23.6858
-12.7825
-12.901
2.77378
24.015
23.128
24.6586
24.507
24.4759
24.467
24.1657
23.7233
3.59758
22.5523
23.7242
23.6706
23.0892
22.8723
22.8672
22.877
-1.46072
11.3914
24.3436
24.7075
1.68352
1.71384
22.6754
22.6174
21.2777
21.31
19.7897
2.31162
-10.947
21.7059
22.5071
22.3733
-1.18501
-1.03494
-0.782842
-0.132433
25.3187
25.0994
2.02863
-13.2203
20.8346
18.66
18.1068
23.4949
-1.36297
0.259752
21.7435
21.8949
23.714
-3.03827
-2.84403
18.4358
18.6762
23.2597
-5.66949
-6.89716
18.0528
18.3353
21.7983
21.8831
2.21044
1.90184
0.776055
-3.54731
-4.07415
0.479815
0.418182
22.0966
-0.776231
23.0018
19.6829
-3.12767
22.681
20.4387
20.7591
-22.1089
-0.457799
21.8612
22.0006
21.2317
24.0017
24.0412
7.39738
24.8406
22.5082
25.1939
0.233536
2.46945
2.35628
25.9981
4.4801
24.7098
-20.0195
-1.79033
-1.31534
0.096604
22.3312
22.3964
21.2538
-23.2146
21.4528
18.8478
22.2304
-3.47029
-3.4101
23.8884
21.9821
22.0507
22.1039
22.1574
-21.1182
24.3931
-4.76344
21.9824
18.6738
18.5076
18.9382
22.9524
24.0525
-1.11823
7.57998
6.99303
0.0925698
0.178594
-16.4875
22.3157
-16.4486
19.4775
19.4227
8.24897
9.04592
8.06407
-3.6148
-3.19612
-16.6096
-0.703768
19.7676
2.23892
2.34442
2.45562
19.3619
22.4621
-1.34099
-2.02353
-0.747362
-2.13921
0.463102
-0.0321015
1.76342
-3.59791
21.0926
-9.35372
-7.374
1.28079
0.881411
2.37871
24.9007
24.5917
0.550144
-13.4678
22.2515
18.9087
19.2995
17.2386
16.9615
16.9611
-11.4983
23.6116
22.7366
22.7598
20.0134
21.7957
1.8806
1.79054
2.26278
1.95214
23.6486
23.6218
-2.45023
22.1031
22.0954
20.1879
20.1372
19.7223
21.1548
21.0246
20.7659
1.06537
1.17133
1.33731
5.02985
2.64727
0.617884
3.59869
-6.66135
-6.39128
23.908
9.65048
-4.93429
-3.93844
-4.32958
-11.7829
-11.2466
3.77677
19.8323
19.3603
19.3763
24.6118
-0.0351674
23.3914
-11.1797
-11.4906
-11.5981
-11.2419
24.3176
3.19426
2.92317
24.1425
18.5033
-5.04554
0.719781
0.825309
-0.551282
-0.45929
24.7183
18.385
-6.34789
-6.82694
-6.57245
-7.48003
24.4768
-1.87275
-2.47445
-1.86134
0.756071
0.720113
-2.84637
19.7815
19.5376
-0.851749
20.6246
-7.05271
-6.76997
-7.1051
0.45977
23.2012
-0.850471
-0.456865
23.551
25.9274
2.03061
1.66539
8.09747
9.39675
17.7908
17.8029
23.4195
-7.84302
18.4932
18.5103
18.1713
18.301
0.694132
-1.25461
-6.28539
-6.75428
-7.19937
23.9587
23.9599
-5.72704
-5.91029
-5.84551
-10.936
-8.63479
-12.6288
-13.0153
18.1268
-4.83216
-4.57803
24.1758
17.4212
17.0639
16.8973
16.3771
18.7281
18.8406
0.212498
-2.58201
23.3532
-4.31209
-4.88234
-5.12854
1.64053
1.03563
23.1649
0.71825
22.0472
22.8203
-2.73602
-2.88382
-2.10937
-8.7913
-8.20955
15.1778
14.5201
19.6564
19.3339
18.218
18.8154
18.7099
19.1983
19.6498
19.4653
19.2506
19.6299
17.6256
23.0651
25.2754
11.1807
-9.47036
-9.69787
-9.50005
23.7104
23.2151
3.67771
3.39518
2.79372
2.87858
2.73739
22.1245
-11.257
-4.09111
26.3826
0.00107641
-3.92102
17.4892
17.1955
17.031
0.358642
22.3503
24.7682
-6.54791
-3.43447
-0.590256
19.5905
19.7199
1.85363
-10.3646
-10.6766
24.397
-5.21981
-6.8094
25.159
-0.917667
-1.47185
3.66148
3.76071
-0.666854
21.9061
-19.141
18.5352
23.7657
20.6034
20.22
1.53615
1.22483
19.429
19.4884
18.9408
23.3841
23.36
0.192882
-0.502191
0.987641
1.01723
4.1319
3.92528
24.4858
17.9293
18.2029
23.249
23.2186
2.76524
2.6479
-4.85613
-2.6981
-2.43814
-0.287265
-0.539371
0.762372
0.574392
12.8838
0.859313
0.861478
-11.0477
-10.8219
17.0937
17.232
-6.81946
-6.23937
0.0172113
-13.6913
-13.1348
17.8318
17.4592
17.4242
17.3438
-5.20421
-5.59067
2.82518
2.74361
2.64793
1.69332
2.28429
2.44911
21.6942
21.738
1.4609
1.74303
1.61465
22.5408
21.6002
6.73105
7.7112
21.3703
17.5501
17.3411
17.2036
0.604072
-6.79849
-5.68492
25.8292
19.7646
19.6024
-8.45278
0.539865
22.2947
-1.58976
-1.47027
-3.64072
21.8558
22.0338
4.71777
4.81979
5.16987
5.18249
3.53985
3.47895
-2.40843
-2.18483
-0.191748
-0.400633
0.708929
0.670008
0.700346
4.90342
-5.18255
-1.80032
17.1651
17.3932
15.9306
16.8861
19.5428
18.7001
18.6736
3.33987
3.2216
19.076
-3.57507
-9.89207
21.6147
1.24453
1.33502
6.07192
0.939185
-0.301326
0.581812
0.735985
17.8339
18.0103
-0.762978
-7.37524
-6.85658
17.3179
2.81797
2.18134
-3.54595
0.646704
0.698454
17.928
-9.61042
0.485279
-1.22931
-0.0796981
0.393028
18.9264
18.6938
19.731
19.1704
18.1137
18.8114
4.65672
25.6831
16.7414
16.7563
16.8129
-5.70738
22.1938
-7.37892
-7.86415
-10.0374
2.59001
2.48848
2.72745
3.31077
-5.55255
-6.37353
3.07165
3.54991
3.2935
1.63488
1.35819
1.30846
0.0506369
-0.0928049
16.8542
16.8071
23.2951
23.5332
23.2919
0.991546
0.896632
1.43677
1.53215
-13.4234
-0.662876
5.54654
6.54642
-5.80886
-5.92349
-9.62104
-10.1259
3.41097
3.35357
3.31502
9.09597
8.3974
9.77851
-0.371392
-0.372203
-0.148367
1.48401
1.80822
1.51778
16.0001
16.8911
2.60687
2.47317
2.20889
-11.2769
-10.8395
-11.3519
1.52955
1.44959
-11.5725
-11.8601
-5.14312
-7.48144
-7.37689
17.6023
17.5019
-13.8428
-13.3056
17.6743
17.3016
17.169
3.42532
-2.89182
-0.351562
16.9457
24.06
1.44103
25.133
3.15906
3.22366
-7.81497
24.0659
2.81563
1.44423
1.31368
3.03171
2.97201
17.0445
17.2814
0.706815
5.14012
5.0516
-4.78591
4.40889
4.15294
3.88668
1.38618
0.930537
6.21263
3.62055
3.6307
5.32061
5.66077
1.02819
1.34413
18.9535
18.8825
3.44642
3.65656
-23.6066
4.23782
4.32243
-4.34346
-5.4956
3.55222
3.49122
5.57822
5.8993
4.33768
4.22561
-2.33029
-2.50683
-2.70598
18.8445
19.0903
19.198
17.1834
17.3579
21.7985
-1.54092
-1.43422
8.29867
-5.54248
-5.66435
2.17863
2.03582
-4.84175
-3.86657
-4.97484
-8.58396
-9.07676
2.32027
2.42022
-0.376457
-0.13198
18.1339
17.3711
-11.104
-10.7789
-8.66625
-9.08747
-9.30675
-7.66548
-7.17266
-8.68345
21.4726
-5.1919
-4.83954
-5.00106
18.7914
18.7647
19.3399
16.5961
15.9577
-0.715898
20.2513
20.2014
16.3632
16.2353
1.89557
2.0027
2.08323
4.08201
3.67709
3.68421
16.1871
16.4457
21.8038
21.6296
19.0291
18.3742
18.3626
-3.30751
-3.84165
-6.65814
-10.925
-10.8436
20.5706
20.5397
20.8422
26.2972
4.1022
4.56796
5.07173
-0.283281
-0.238357
3.74472
18.1503
18.7382
18.316
18.8436
17.9743
17.1542
17.8342
18.4273
2.12079
2.13281
-5.70553
-5.01969
-5.60972
-3.30673
-3.03227
-20.4757
-2.32418
-2.54911
-9.78902
-1.92799
20.7001
20.7127
-3.93577
-3.56227
-3.57344
1.39255
1.3285
1.1439
1.16381
0.657566
20.3883
2.14411
2.58902
-0.182221
-0.0616412
-0.179248
-15.0434
-14.3034
-12.7661
25.8053
25.608
-12.1341
-11.6639
1.52799
2.10634
21.1545
21.248
20.6752
21.1884
0.256539
0.299849
-3.1892
-3.53383
-0.110994
-0.311638
-0.605282
17.5806
17.5997
16.2599
0.836592
0.763879
0.797562
-2.99533
-4.02061
-4.13946
-4.29879
0.96501
1.89666
2.5941
2.10133
0.968046
0.873478
0.800665
4.25298
-0.933706
-0.680953
20.371
7.21512
1.64944
20.2066
19.7392
-13.8018
21.7273
1.12424
-12.7662
-13.9202
-8.05991
-11.5599
10.2269
6.1883
-2.08899
5.39095
-3.49632
-0.726271
8.75009
4.92826
-13.0358
8.14403
4.40552
-9.9356
5.24244
11.7626
11.0534
-8.13946
6.56122
5.87487
8.85821
-9.07138
-11.7868
10.1318
-11.6285
10.6574
6.21005
3.22922
-5.24419
-9.52469
10.0933
12.2516
5.99127
5.36034
5.38188
15.7855
8.69432
0.341058
-0.200397
-0.293126
-16.6722
10.1709
11.4086
11.0218
2.8633
3.72637
3.08292
3.76159
4.71829
9.67404
-14.0571
-14.4243
-4.88748
6.56926
-12.7142
2.35708
10.1072
-0.637068
-4.68817
10.0961
2.79881
-1.01755
-8.69983
11.1167
12.1434
-27.8286
9.9612
-4.32188
1.02716
15.1795
6.27217
-13.6163
21.3945
21.7934
-11.5914
-12.2111
6.32924
6.61342
6.52053
-4.48018
0.686014
5.11514
2.92019
11.7475
8.46515
12.0825
-2.48236
-2.63924
9.18288
8.65724
9.64433
-20.1415
12.384
12.1833
-3.4843
-3.63374
3.31254
5.08284
6.6045
7.03496
-9.75659
-10.7804
9.3882
10.1412
12.1908
12.9569
0.925641
1.72492
-15.8024
-16.795
0.861246
1.50605
-10.9589
-6.15301
-7.10883
7.33129
7.08327
-13.7699
9.14281
8.36125
5.1911
5.09311
5.50743
5.54249
-13.5194
10.0461
8.16683
-0.236891
2.42764
-13.7931
7.61751
-15.2082
-0.651293
15.3071
-0.36812
2.6241
9.80181
6.19037
-0.132213
0.365281
-12.6609
-0.832392
13.0087
2.69082
1.99091
-0.165184
5.17144
0.626355
-0.105253
7.37739
7.98317
7.6594
6.0515
15.8852
-1.57095
12.6978
10.3714
11.1056
2.38558
1.84704
15.0769
15.3395
3.92481
-20.8693
0.766703
1.28376
-11.7394
-11.8883
9.21278
8.796
-5.78456
-6.49815
-7.31148
13.2691
13.6413
7.97344
-27.7821
8.34904
9.5097
9.70033
-12.5136
-1.73533
7.21596
-13.3589
4.54162
-17.0448
-3.43891
-2.949
2.00159
1.62944
-10.8938
-1.57999
5.1385
3.13201
2.55656
1.94191
2.64416
8.95903
11.8109
12.0928
15.643
-0.663745
-1.15894
-9.17863
8.98653
5.64003
-11.2787
6.78529
6.9495
7.30548
2.13204
2.68822
10.1461
5.79138
5.90594
2.6072
2.85493
9.95941
9.20461
3.34771
3.96732
-2.88338
10.9834
10.4717
-10.5884
2.9109
3.01295
2.68104
2.97419
3.0907
3.03343
-13.6624
-0.913108
2.17913
2.93593
3.54827
4.16348
3.13287
2.92523
11.5834
11.2952
3.58194
-11.8256
11.143
-16.7455
0.444802
1.03724
11.2856
10.9666
9.23901
8.73775
-12.4316
5.92948
-3.47433
-3.36482
7.49543
8.14077
4.85217
0.648367
1.15378
1.68134
13.552
14.5191
7.80963
8.27839
9.77646
10.3874
10.115
10.3137
4.97711
4.36196
-12.9712
-13.0254
0.803148
0.58993
-0.427625
-0.260258
21.3908
21.3662
21.6114
9.92402
9.62271
9.54213
5.32263
5.18802
10.307
10.3762
10.3747
2.26732
1.36017
14.3716
13.3035
10.1535
9.98525
10.3423
10.5697
-12.6828
16.2443
16.2687
0.558226
-0.422624
8.23438
8.11996
2.83718
3.32589
2.90205
3.33457
8.5035
5.91501
1.88417
-5.19847
-5.54887
-13.5654
2.54123
2.14532
2.88375
3.39075
8.25017
-6.52083
-7.52443
-6.67703
-1.93254
0.878285
1.63347
14.9276
15.7236
3.54636
3.19019
10.6523
10.9897
-2.56571
-2.86252
13.436
13.6713
1.50014
2.17008
8.86087
9.25107
9.46522
9.16555
8.07827
7.95816
-1.57291
-1.43113
10.6942
10.6208
-12.1101
-11.0814
22.1967
8.21726
8.65152
8.75741
-5.88288
-6.50158
-0.728736
-0.548093
-3.66033
5.37434
5.32355
3.62802
3.09413
10.144
10.279
4.79425
-20.0947
-14.9053
5.34411
7.48632
11.0143
9.78913
0.146049
4.34904
4.0607
9.08857
9.66083
13.5125
14.1524
13.4572
9.94552
9.16619
-13.4691
-1.97218
9.47074
9.82407
9.54825
10.0031
3.87333
3.73634
3.60324
3.71592
2.5151
4.33216
3.51393
6.09287
4.93303
5.03258
5.07731
-12.6729
-12.5997
-12.7406
-4.42355
11.1535
11.5414
1.85373
2.10795
0.939077
0.194497
-14.0849