/*--------------------------------*- C++ -*----------------------------------*\
  =========                 |
  \\      /  F ield         | OpenFOAM: The Open Source CFD Toolbox
   \\    /   O peration     | Website:  https://openfoam.org
    \\  /    A nd           | Version:  6
     \\/     M anipulation  |
\*---------------------------------------------------------------------------*/
FoamFile
{
    version     2.0;
    format      ascii;
    class       surfaceScalarField;
    location    "600";
    object      phi;
}
// * * * * * * * * * * * * * * * * * * * * * * * * * * * * * * * * * * * * * //

dimensions      [0 3 -1 0 0 0 0];

internalField   nonuniform List<scalar> 
44596
(
1.53845
-2.16522
0.626766
1.53845
1.4465
-1.4465
1.93775
-0.491255
-0.0938812
-2.14921
2.10196
-0.563509
1.31087
-1.31087
0.215937
1.81677
-2.21228
0.76578
-0.267239
2.30059
-0.800568
-1.20751
0.800568
1.30139
-0.560569
-1.34431
0.560569
0.750299
-0.594011
-0.825735
0.825735
-1.17061
1.38654
1.19427
0.636709
-1.83098
0.0433939
1.50307
-1.54646
1.42558
-1.42558
-0.146923
-1.6763
1.82323
1.54991
-0.0874287
-1.46248
1.12339
-1.12339
-1.10526
1.10526
1.12465
-1.12465
0.239287
1.24589
-1.48518
1.374
-1.37401
1.46927
0.08064
-1.31648
1.31648
0.267058
1.34835
-1.6154
-1.58119
1.58119
0.600454
0.582091
-1.18254
1.94062
-0.51503
-1.25315
-0.218718
1.47187
-1.42934
1.42934
0.706513
1.2933
-0.793412
1.49993
1.47142
-1.76689
0.295469
-1.62219
1.62219
1.05669
-0.817398
1.2458
-1.41547
0.169668
0.962621
-0.962621
1.2026
-1.34952
-2.31214
0.831794
-0.831794
1.00907
-1.0965
1.84086
-1.92829
-1.58786
-0.614465
-0.790787
-0.797075
-0.89796
0.89796
-1.03979
1.08319
1.98115
0.0634909
1.48719
-1.55068
-1.53491
0.135001
1.39991
-1.55068
-0.457797
0.00734645
-1.43668
0.11286
0.211224
0.259719
-1.8104
-1.50717
1.8104
0.529994
-1.20848
1.99926
-1.43668
-0.94227
-0.473198
-1.56155
1.56155
0.895825
-0.390091
-0.505734
-0.814145
0.41592
0.398225
0.70333
-0.112762
-0.590568
-0.0013373
-0.090926
0.0922633
-0.0590544
-0.0632232
0.122278
0.0609869
1.44208
0.853908
-0.792921
-0.00243553
-1.46005
-1.20666
1.20422
-0.0386987
-0.00354181
0.0422406
0.124909
1.06937
-0.79292
0.55533
0.237589
-1.66208
-0.014223
-0.348891
0.929129
-0.580238
0.416562
0.59385
-1.01041
0.0487822
-0.8827
0.833918
0.0091512
0.0660225
-0.0751737
-0.0351688
0.00960156
0.0255672
0.0952568
-1.02209
0.926835
0.805134
0.63695
0.710278
-0.609103
-0.101176
1.24529
-0.14191
-1.10338
-0.16302
-1.0934
1.25642
1.53079
-1.69381
-0.0213159
-0.0138529
0.00502171
-0.0437204
-0.934651
-0.727429
-0.0368179
-0.897833
-1.07632
-0.00686552
0.0324781
-0.0256127
-1.31101
-0.149034
-0.442251
-0.86876
0.010947
-0.803866
-0.803198
-0.678957
-0.607124
-0.326618
0.933743
-1.19883
0.980113
0.000759665
-0.000759688
-1.10209
1.25335
-0.15126
0.25071
0.904985
-1.1557
0.821201
0.0685094
-0.889709
0.0162466
0.912882
0.912071
0.898659
-0.479651
0.896212
-0.887871
-0.318787
-1.13114
-0.307037
1.43817
-1.19702
0.2594
0.937624
0.536266
-0.851625
0.31536
1.056
0.943907
-0.743163
0.754117
-0.0109534
-0.882168
1.05184
0.848343
-0.211634
0.253748
-1.18828
0.934531
-0.982842
-1.0306
-0.284304
0.987633
-0.898402
-1.41374
0.935219
0.308481
-1.2437
-0.00936821
-1.41622
1.1405
-0.205974
1.22299
0.758155
1.07588
0.924052
-0.632249
-1.29604
1.0745
0.171395
-1.10575
-0.874385
-1.85223
0.746487
-1.63697
-0.194015
1.15643
-0.734397
-0.422029
-0.103009
0.803315
-0.700305
-0.953676
0.0849161
0.888231
0.116604
-1.05887
-1.32008
0.420401
-0.912961
0.49256
0.823299
-0.612075
-1.52504
-0.805194
0.331996
0.351232
0.716229
-0.775917
0.0596884
0.808808
-0.695948
0.0478713
-0.0387201
0.0377499
-0.0446154
-0.535718
1.02828
-1.23404
0.698324
-0.00107293
0.00107296
0.864497
-0.878273
0.0137764
0.1301
0.000659764
-0.000659771
0.000659857
-1.10113
1.10113
0.860908
0.800841
-0.670741
0.758549
-1.25556
0.497007
-0.720532
0.569898
0.150634
-0.0102538
0.396777
0.457131
-0.56633
-0.236868
-1.55401
1.49646
0.0575581
0.206898
-1.08907
1.53079
0.946314
1.38922
-1.47018
0.0809602
0.00135349
-0.00135339
0.000693707
-1.00472
0.891961
-0.86087
1.1621
-0.301232
0.817226
1.41768
1.29391
-0.711821
-0.638389
-0.372023
0.655523
2.35701
-0.983008
-0.146993
-0.923144
0.230718
-0.64406
0.413341
0.061515
0.799393
0.285496
-0.876063
1.04334
-0.063228
-1.18526
0.945875
-0.24755
-0.130445
0.795464
-0.112617
1.23573
-1.35848
1.35903
-0.000548838
-1.04184
-0.504621
-1.5331
-0.767318
0.384496
0.0467027
0.628256
-0.674959
1.20978
-0.153786
-0.148697
1.70674
-0.483763
-1.22297
-0.145498
0.75707
-0.405838
-0.625722
-0.225904
-1.40272
1.33946
1.96623
0.00394894
-0.00305873
-0.000890215
0.0014409
-0.00656122
0.00512032
-0.0274591
0.0283744
-0.000915331
0.0413516
-0.0212291
-0.0201225
-0.00462365
-0.00471842
0.00934206
-0.00948139
0.00485773
-0.0556203
0.0123735
0.0432472
-0.0173217
-0.105768
0.12309
-0.00478107
-0.00534033
0.0101214
-0.0636777
0.0483669
0.0153108
-0.112396
0.074027
0.0383686
0.0549595
-0.00857193
-0.0463873
0.00749377
-0.00645287
-0.00104091
-0.498479
0.325017
0.173462
0.018658
0.00158862
-0.0202466
0.00785267
-0.00547399
-0.00237869
-0.00131636
0.00131634
0.00387542
-0.00865649
0.00891975
-0.00565768
-0.00326208
0.0200593
-0.0438382
0.0237789
-0.00923627
0.00676099
0.00247527
0.00441792
0.00343475
-0.0511597
0.00370632
0.0474533
0.0435731
-0.0459279
0.00235467
0.0105299
0.0147878
-0.0253177
0.0368897
-0.0263597
-0.0547188
0.00977013
0.0449486
-0.0393656
0.0564742
-0.0171086
0.00144596
-0.00144597
-0.00596915
-0.00673439
0.0127035
-0.0106876
-0.0469565
0.0525492
-0.0055895
-0.00671633
-0.0528406
0.0595573
-0.0367644
0.00750532
0.029259
0.00304706
0.0160336
-0.0190806
-0.00247747
-0.0171349
0.0196124
0.00251595
-0.0025159
0.0145724
-0.0385704
0.023998
0.00515924
0.00609662
-0.0112559
0.0100108
-0.00119116
-0.00881965
-0.0117606
0.0861702
-0.0744098
0.0650847
-0.0768454
0.0527267
0.0215492
-0.074276
0.0671646
-0.0144379
0.0068031
-0.00231765
-0.00448545
-0.00308208
0.0460713
-0.0429893
0.0620026
0.00907086
0.00958711
0.0186724
0.00541846
-0.0239621
0.0185437
-0.0193968
0.0197359
-0.000339069
-0.00696982
-0.012427
0.0539445
-0.0528332
-0.00111104
-0.0455389
-0.00870543
0.0542443
-0.00805777
0.00373125
0.00432652
0.0105187
-0.00783895
-0.00267979
-0.0103104
0.0349002
-0.0245899
-0.045215
0.0384995
0.00974488
-0.00845645
0.00444072
-0.00811857
0.00367784
-0.0160593
-0.0386595
-0.00121789
-0.00559686
0.00681471
-0.021257
0.0142872
0.0123409
0.00263339
-0.0149743
0.00590403
-0.0126384
-0.627047
0.300428
-0.0227489
0.0124385
-0.00285389
-0.00128877
0.00414272
0.0228114
-0.0231079
0.000296552
0.00769456
0.0151168
-0.0121921
-0.0105569
0.003535
-0.015727
0.00794495
-0.0185018
0.00703198
-0.00908466
0.00205267
-0.00259436
-0.00451082
0.00710517
0.0012469
0.00939102
-0.0106379
0.0476289
-0.0378587
0.0082633
-0.0505335
0.0263979
0.0241356
-0.0160832
0.0194962
-0.00341297
-0.00322432
0.0159278
0.0111105
-0.00891054
-0.00219993
0.0441883
-0.0359249
0.0467388
-0.00255047
-0.0461701
0.0102452
0.0570996
-0.676001
0.618901
0.00614652
0.00437223
-0.00368837
-0.0043694
0.0624739
-0.33989
0.277416
0.172521
-0.501495
0.328974
-0.000241391
-0.00777058
0.00801195
-0.00374128
0.00776466
-0.00402339
0.0257843
-0.0180897
-0.0112992
0.0305947
-0.0192955
-0.0280638
0.0118142
0.0162496
-0.0191411
0.0286555
-0.00951443
-0.0472049
0.0404698
-0.00615902
-0.00452855
-0.0164188
0.0243638
-0.00605018
0.00749108
-0.00506028
0.00664889
0.01414
-0.0358903
0.0496626
-0.0137723
-0.0552552
0.0193649
-0.00140359
0.0203323
-0.0189287
0.00538128
-0.0186348
0.0132535
-0.063383
-0.0490125
0.26228
-0.5871
0.324821
0.000886822
0.0494432
-0.0503297
0.0548314
0.0408714
-0.373225
-0.125254
-0.0116796
-0.00856702
0.00748935
0.0111479
-0.0186372
-0.141335
0.201238
-0.0599033
-0.0011924
0.00119236
0.0876382
-0.0327154
-0.054923
-0.00546909
0.00836146
-0.00289237
-0.0482536
-0.0261869
0.0744405
0.00842418
0.00571579
0.0113618
-0.00649932
-0.00486252
0.00735359
0.0123823
0.0127349
0.00189486
0.0104875
0.184231
0.118579
-0.30281
0.0194633
0.00604286
-0.0255061
0.00185264
-0.0135322
0.4637
0.125161
-0.588861
-0.748325
-0.134374
-0.00424785
-0.0212583
0.0361932
-0.00371509
0.0319454
0.0270323
-0.0219816
-0.00505074
0.0127454
-0.0383581
-0.00752654
0.00136753
-0.00842589
0.000899343
-0.385531
0.482565
-0.0970345
-0.506741
0.495788
0.0236964
0.0327779
0.039946
0.0477857
0.0109333
-0.0587195
-0.0502931
0.0407787
-0.000630482
0.040759
1.97301e-05
-0.00748929
0.0479794
-0.04049
-0.0530282
-0.00574293
0.0041422
0.00160073
-0.0738864
0.0256325
-0.00769536
0.0512682
0.0105486
0.00786554
-0.0184142
-0.00914504
-0.0139629
-0.00609734
-0.634336
0.49669
0.137646
-0.0366291
0.0258113
0.0108178
0.000260556
-0.0247222
0.240377
0.236539
-0.476915
0.340373
-0.0999968
0.551899
-0.00792076
-0.000989781
0.0015911
0.0095568
-0.00632966
0.0303532
-0.0316906
0.0333244
-0.0283027
-0.0599932
0.328357
-0.155905
-0.172452
0.00601334
0.00586676
-0.0118801
-0.00729422
0.0106922
-0.00339799
-0.00620875
-0.0134409
0.0196496
0.0092323
-0.0154411
-0.0114621
0.00513245
0.00109827
-0.0125604
0.0110664
-0.00593392
0.0288929
0.0220616
-0.0509545
0.0314468
-0.0012506
-0.0301962
-0.0111945
-0.0487987
0.0368224
0.000927437
0.0256279
0.00868549
-0.000960908
-0.00772458
0.00311984
0.00556565
-0.0241833
-0.0201594
0.0443427
0.0133655
0.0185764
-0.0319419
-0.00158307
0.00448736
-0.00822865
-0.00508527
-0.0460744
0.0448179
-0.0247586
0.00696823
-0.00967064
0.00270239
-0.00961519
0.00767929
0.0019359
-0.0257598
0.0119069
-0.00618558
0.0318135
0.014366
-0.0166393
0.00227325
0.02027
-0.0184843
0.92347
0.209637
0.591204
-0.440356
-0.185366
-0.00993854
-0.00670072
0.00514904
-0.0150876
0.00839607
-0.0150968
-0.0488311
0.0107735
0.0380576
0.000464208
-0.0560212
0.055557
0.00815359
0.0202997
-0.0284533
-0.0229414
-0.00900049
0.039057
0.00892232
-0.0106077
-0.0353202
0.0284491
0.00863919
-0.00219504
-0.00644415
0.00725991
0.00137928
-0.00848292
0.00628789
0.0193652
-0.0163182
-0.531173
0.590862
-0.512168
0.594399
-0.0822297
-0.00383435
-0.00743679
0.0112711
0.0256631
-0.0847175
0.0325507
-0.0179783
0.00509149
0.0287605
0.0119252
0.00834476
0.0169794
-0.00505414
-0.0144107
0.0227554
0.0731848
-0.063535
-0.00964864
0.00315582
-0.0193138
0.016158
0.0204639
-0.0077185
0.0236198
0.325131
-0.337382
0.0122507
0.00211412
0.00924771
-0.00794908
-0.000476801
-0.00583497
0.00877091
0.499291
0.947306
-1.4466
-0.000812848
0.000812805
-0.57128
-0.068412
0.639692
-0.820034
1.31932
-0.00114646
7.35784e-05
0.467856
-0.410756
-1.06676
1.06676
0.130459
0.945423
-0.885388
0.654549
0.230838
-0.406914
-0.478474
1.24077
-0.260653
-0.980121
0.113794
-0.0560088
-0.0577855
-0.527883
-0.106453
-0.104179
-0.423704
-0.828993
0.92425
0.184886
0.311743
-0.496628
0.369117
0.0437338
0.647159
-0.690892
0.481884
-0.43815
0.0650491
-0.017263
0.60204
-0.620525
0.536047
0.0659932
0.135376
-0.109713
0.484118
-0.235007
-0.249111
0.19753
0.286587
0.00369235
-0.00397436
0.000282035
-1.01602
-0.14472
0.578406
-0.433686
-0.000599469
0.000599464
0.399417
-0.944869
0.545451
-0.554695
0.601397
-0.309574
0.59507
0.0803087
0.0550672
-0.608555
-0.21961
0.828165
-0.0562806
-0.0229741
0.0792552
0.00876947
-0.157401
0.00988597
0.147515
0.644295
-0.701795
0.0932393
-0.328128
-0.373667
-0.693245
0.365118
-0.919915
0.0451573
-0.998287
0.750737
-0.164368
-0.441015
-0.234986
-0.636274
0.41037
-0.131259
0.351306
-0.892119
0.502029
-0.60833
-0.283789
0.000620324
-0.000620333
0.00112268
-0.00404364
0.002921
1.03691
-0.148675
-0.01237
-0.671657
0.684027
0.943564
-0.617504
-0.32606
0.335235
0.219559
-0.699209
0.662546
-0.0876562
-0.57489
0.880554
0.738644
-0.315321
0.714738
0.0286446
0.0695158
0.0166751
-0.185506
0.22578
-0.0402738
0.22026
0.424035
-1.1546
1.15461
-0.49188
-0.201364
-0.749532
-0.27256
0.828469
-0.326441
0.0789376
0.274332
0.193524
-0.00449824
0.00255739
0.00194084
0.794652
-0.532371
0.302772
-0.0249035
-0.0881266
-0.00837607
0.00254109
0.813805
-0.958525
-0.456138
2.01769
1.04032
-0.542358
0.360891
0.181467
-0.268026
-0.324925
-0.333031
0.657955
0.0362422
0.247444
-1.503
0.863365
-0.615921
-0.0825201
-0.254159
0.336679
-0.268026
1.20191
-0.059124
0.0430647
-0.0375747
-0.616777
-0.212216
1.07437
0.249711
-0.579209
0.329498
-0.830554
-0.580843
-0.803312
0.255654
-1.05897
-0.00946521
-0.0121906
0.054974
0.06345
-0.941723
0.710609
-0.000405888
0.00102621
1.22299
-0.6835
1.90649
0.225804
1.03777
-0.811962
0.933587
-0.925669
-0.0903475
-0.289672
-0.289536
0.644071
-0.0185581
0.00414737
-0.0162848
-0.0271744
0.0108896
0.111507
-0.647554
0.72238
-0.0748254
0.298676
-0.607015
0.988067
-0.381052
-0.02861
0.785195
1.03882
-1.18432
0.00611774
-0.629378
0.266835
-0.14233
-0.00353849
0.0262939
0.0430019
0.182778
-0.0667108
1.2702
0.210706
0.848168
0.0428574
-0.0515626
-0.00997575
0.0100773
-0.0982039
-0.0746402
-0.141351
-0.0225538
-0.0612739
0.419047
-0.493872
0.509469
-0.0904226
0.349453
0.160017
0.423375
-1.3415
0.158426
0.0398678
-0.486067
-0.157992
-0.446199
0.5776
0.0413013
-0.445326
0.287334
-0.0978981
-0.347428
-0.352057
1.13951
0.130175
0.828087
-0.697912
0.567435
-0.000572125
-0.000240778
0.00481502
-0.781872
-0.456855
-0.59123
0.0220254
1.39511
0.711606
-0.758574
-0.00718789
0.00863673
-0.00144882
0.00264654
-0.00983442
0.00209582
0.00416145
-0.00625727
-0.0060754
-0.00679065
0.012866
-0.151918
0.264648
-0.11273
0.00653229
-0.00528187
-0.00125043
0.0069019
-0.00120239
-0.00569952
-0.00611137
0.00376523
0.00234614
-0.00549665
0.00496342
0.000533217
-0.0141695
0.0139062
0.000263312
0.0113176
-0.00293508
-0.00838249
0.00189011
0.00942748
-0.0169661
0.00537786
0.0115882
0.00675599
-0.00228924
-0.00446675
0.00306992
0.00368607
-0.0130164
0.00408174
0.00893463
0.00615301
-0.0191694
-0.00295369
-0.00461539
0.00756908
-0.00730626
-0.00159939
0.00890564
0.00264246
0.00756365
-0.0102061
0.00495905
0.0028081
-0.00776715
0.00580993
-0.00928745
0.0034775
0.00873098
-0.00907143
0.000340447
0.00240385
0.00632714
-0.00779319
0.0053239
0.00246929
-0.00520762
-0.00258558
0.00179596
-0.00623587
0.0044399
-0.00153508
0.00899711
-0.00746202
-0.00225104
0.00405939
-0.00180834
-0.0032102
0.00194537
0.00126483
-0.00373691
-0.00334924
0.00708612
0.00533814
-0.00907506
-0.00318005
0.00999003
-0.00680998
-0.00658022
0.0022312
0.00434901
-0.00116856
-0.00541166
0.00277868
-0.0076883
0.00490962
0.00255282
0.00509967
-0.0076525
0.00678796
-0.00657308
-0.000214884
0.00318713
-0.0027224
-0.000464727
0.00308387
0.00310988
-0.00619375
0.00455501
-0.00603118
0.00147617
-0.0061784
0.00322471
0.00930439
0.000322591
-0.00962699
0.00497557
0.00432882
0.00320658
0.00758405
-0.0107906
0.00728485
-0.00871434
0.0014295
0.0109155
-0.00150439
-0.00941114
-0.0108252
0.000765083
0.0100602
-0.00968192
-0.00110224
0.0107842
-0.00442079
0.00621675
0.00702678
-0.0102281
0.00320132
-0.0128975
-0.00127205
-0.0067662
-0.0061313
-0.0249282
0.0205863
0.00434185
-0.00861052
-0.332186
0.340796
-0.00781289
0.003755
0.0040579
-0.00496975
0.00673882
-0.00176907
0.184078
-0.192689
-0.00474769
-0.00513639
0.00988408
-0.00966475
0.00205351
0.00761124
-0.00202134
-0.0076434
0.019435
-0.00503758
-0.0143975
-0.00792441
0.0273595
0.00697975
-0.00229554
-0.00468422
0.00236297
0.00461678
-0.00635752
0.00996787
-0.00361037
0.00519615
-0.00820092
0.00300477
0.00852528
-0.00545535
-0.00111092
0.0108219
-0.00971096
0.00393037
-0.00570932
0.00177895
0.010115
-0.0126104
0.00249546
0.00863533
-0.00863537
0.00246014
0.0152657
-0.0177259
-0.0102409
0.00512947
0.00511138
-0.00805418
0.00310414
0.00495004
0.00821763
-0.00821764
0.00747306
-0.00747305
0.00159744
0.00714152
-0.00873896
0.02812
-0.0125027
-0.0156167
-0.00366256
-0.00560125
0.00926382
0.00658369
-0.00598501
-0.000598647
-0.0223896
0.00651845
0.0158712
0.0103269
-0.0327165
0.00289298
0.00458969
-0.00748267
0.00558716
0.0019066
-0.00309312
-0.00538981
-0.00284208
0.015183
-0.00361133
-0.00601948
0.00963081
0.00632758
-0.00404443
-0.00228316
-0.00529465
-0.0019217
0.00721636
-0.0113284
0.00457105
0.00675735
-0.0106129
0.00660462
0.00400825
-0.00453315
0.00672428
-0.00219114
-0.000333239
-0.00419991
0.0126427
-0.0103171
-0.00232551
0.0103998
0.00106348
-0.0114633
-0.00774044
-0.000941793
0.00868223
-0.00463241
-0.00310802
-0.00233652
-0.00635748
0.00869401
0.00164426
-0.00616088
0.00451663
-0.000122869
0.00707411
-0.00695124
-0.00152641
0.00732434
-0.00579794
-0.00390045
-0.00393883
0.00783928
0.00809716
-0.00387438
-0.00422277
-0.0117506
-0.0017339
0.0134844
0.01224
-0.00667084
-0.00556915
0.00504649
0.00649601
-0.0115425
-0.00760704
0.00762309
-1.60339e-05
-0.00668209
0.00722802
-0.00054594
-0.00659718
0.0105189
-0.0039217
0.00684321
-0.000586739
-0.00625647
0.0072559
-3.53601e-05
-0.00722053
0.00826762
-0.00217688
-0.00609074
0.00117779
-0.00640052
0.00522272
0.00197048
-0.00771872
0.00574823
0.0063884
-0.000928595
0.00617063
-0.00524203
-0.00681513
0.000569428
0.0062457
-0.0180455
0.026312
-0.00826649
0.00132072
-0.00533054
0.00400982
0.00294044
0.00506538
-0.00800582
-0.00670293
-0.00442136
0.0111243
0.00339746
-0.0101004
0.00666866
-0.000265115
-0.00640355
0.00919465
-0.00252599
0.0178878
0.0102324
0.00471908
0.00384911
-0.00856819
0.0103667
-0.00960261
-0.000764111
0.00976194
-0.0097619
0.00550265
0.00358154
-0.00908419
-0.00593803
-0.00161861
0.00755664
0.0136812
0.0253338
-0.039015
-0.0028081
0.00755245
-0.00474435
0.00143679
0.00564665
-0.00708344
0.0159009
-0.0131212
-0.00277972
-0.00538788
0.00153325
0.00385463
0.00858636
0.00380454
-0.0123909
-0.00237648
0.00606448
-0.00368801
0.00652063
0.00471805
-0.0112387
0.00125614
0.0052906
-0.00654674
-0.00217385
-0.00632363
0.00849748
0.000942455
0.00598541
-0.00692786
-0.02824
0.0449347
-0.0166947
0.0340174
-0.0622574
-0.00752882
0.00137867
0.00615016
-0.00407757
-0.00345125
-0.00846691
-0.00291527
0.0113822
0.00981026
-0.00570471
-0.00410556
-0.0114311
0.00603198
0.00539916
-0.00713236
0.0104138
-0.00328141
0.00166301
-0.00648941
0.0048264
-0.00364882
-0.0024476
0.00609642
-0.00738166
0.000892611
0.00648905
0.00146086
0.00188518
-0.00334604
-0.00382913
-0.00166753
-0.00216893
-0.00555837
0.00772731
0.00856392
-0.00777672
-0.00078719
0.00880749
-0.011144
0.0110777
-0.00795783
0.000521466
0.00481538
-0.00533685
0.00648878
-0.00596731
-0.0257436
0.0329387
-0.0071951
-0.0194785
-0.00626509
0.00148468
0.00594059
-0.00742526
-0.00796654
0.00808402
-0.000117478
-0.00459474
-0.0033718
0.0106691
-0.00710424
-0.0035649
0.0064694
-0.011677
0.00125639
-0.00811072
0.00685433
-0.00412774
0.00733432
0.00590949
-0.0100372
-0.00769732
-0.00514005
0.0128374
-0.00727241
-0.00333702
0.0106094
-0.0119858
0.0056283
-0.00752332
0.00362287
0.00216765
0.00373984
-0.00590749
0.00490367
-0.00590169
0.000998018
0.00347861
0.00142505
-0.000498421
0.0069478
-0.00644937
0.00512041
-0.00628898
0.0268687
-0.000382448
-0.0264864
0.0427821
-0.0159133
-0.0319658
-0.00660463
0.00943412
-0.00864995
-0.000784173
0.00726028
0.00774941
-0.00549425
-0.00225516
0.00163804
-0.00987673
0.00438248
0.00115851
-0.0172417
0.005856
0.00291584
-0.00877184
-0.0081771
0.00898122
-0.000804123
-0.00584172
-0.00173473
0.00757645
0.00414154
0.00612704
-0.0102686
0.00774408
-0.00594022
-0.00180387
0.00379755
0.00294966
-0.00674723
-0.0199074
-0.0281405
0.0480479
0.00612284
-0.00893094
-0.00495793
0.011022
-0.00606407
-0.00775054
0.00202809
0.00572245
-0.000267043
-0.00830133
0.00856838
0.00881769
0.000880062
-0.00969775
0.0038043
0.00322179
-0.00702608
0.00730763
-0.0104864
0.00317881
0.0065976
0.000532308
-0.00712991
0.130503
-0.0473276
-0.0831753
-7.46122e-05
0.00834224
0.00718129
0.0116634
0.00429769
-0.0159611
-0.00584403
0.011655
-0.00581102
0.00179493
0.00600315
-0.00779809
-0.00886494
0.00357753
0.00528741
-0.000981673
-0.00662537
-0.00843733
0.0181277
-0.00969037
-0.00287504
-0.00538884
0.00826388
-0.0023875
0.0105598
-0.00817232
0.00522255
0.00743261
-0.0126552
0.00835196
-0.00898039
0.000628424
0.0100099
-0.00811982
0.0103032
-0.00636502
-0.0039382
0.00225699
-0.00868981
0.00643282
-0.00437582
0.00663282
0.000693325
0.00592907
-0.00662239
0.0104751
-0.00525254
0.00478773
0.00464432
-0.00943205
0.00544707
0.0029049
-0.00413807
0.00958514
0.0103375
-0.0060238
0.00838677
0.00794994
-0.00517126
-0.00161114
0.00813177
-0.0105853
0.0074053
-0.0210157
0.00457113
0.0164446
-0.0128657
-0.00814997
-0.010464
0.00842276
0.00204125
-0.010045
-0.000419035
0.000652226
0.00465874
-0.00531098
0.00214233
-0.0082271
0.00608474
0.0298445
0.0197767
-0.049621
-0.030161
-0.016226
-0.000316392
0.00185712
0.003593
-0.00545012
0.00568051
0.000851778
-0.00471649
0.012649
-0.00793247
0.00187697
-0.00720044
0.00532348
-0.0103296
0.00651937
0.00381019
-0.00817718
0.00262436
0.00555281
-0.0062096
0.00739652
-0.00118693
0.00365875
0.0138869
-0.0175456
0.00981176
0.00665587
0.00723101
-0.00536442
0.0108698
-0.0055054
-0.00790472
-0.00262721
0.0105319
-0.00400066
-0.00436315
0.00836381
-0.0013168
-0.00680934
0.00812614
0.00107503
-0.00832114
0.00724611
0.00692307
-0.00909994
0.0173013
-0.00596098
-0.0113403
0.00963871
0.0054548
-0.0150935
0.00856355
-0.0352319
0.0266683
0.000965164
-0.00952649
0.00856132
-0.0059893
0.0117165
-0.00572717
0.00957701
-0.0013544
-0.00822261
-0.00115355
-0.0074223
0.00857585
0.0109978
-0.00923926
-0.00175857
0.0013159
0.000906414
0.00276892
-0.00367535
0.0140072
-0.0043685
0.00614492
0.00786229
0.0129327
0.00161854
-0.00659585
0.0049773
-0.00713571
0.00832862
-0.00119292
-0.00191921
-0.0052165
0.000532632
-0.00928222
0.00874959
0.00958257
-0.00412777
-0.00141834
-0.00906513
0.0104835
-0.00910036
0.00768202
-0.00529658
0.00923414
-0.00393756
-0.00575629
-0.00286384
0.00862012
-0.0172507
0.0121451
0.00510559
0.0107434
-0.0140562
0.00331282
-0.0381292
-0.0174911
0.0741513
0.0563518
0.0115905
-0.00337348
-0.00821697
0.0183964
-0.0129779
0.00959792
0.0087825
-0.0183804
0.0097438
-0.00825912
0.00140664
0.00833717
-0.00719292
0.00859956
-0.00492688
-0.00699123
0.0119181
-0.00447925
-0.00373377
0.00821299
-0.0376612
0.0215142
0.0161469
0.0323035
-0.0301133
-0.00219027
-0.00178071
-0.0020385
0.00381921
-0.0358341
0.0240798
0.0117543
0.00541617
-0.0265179
0.0211017
0.00043507
-0.0110576
0.0106225
0.00141767
-0.0116935
0.0102758
-0.013849
0.00695168
0.0068973
-0.00442021
0.00749896
-0.00307875
-0.00546743
0.0105139
0.00677257
-0.0028907
0.00828618
-0.0053955
0.00268326
0.00505236
-0.00773561
-0.00616035
-0.00186722
0.00802757
0.00413736
-0.00736533
0.00322794
-0.00256087
0.0122875
-0.00972663
0.00735941
0.00654595
-0.0139054
-0.00251681
-0.00757422
0.010091
0.00568899
-0.00938999
0.003701
0.00630464
-0.00537056
-0.000934092
-0.00213569
-0.00570326
0.00416895
-0.00688163
0.00675875
-0.00749832
0.00803096
-0.00850694
0.00178841
0.00671854
-0.00810358
0.00928513
-0.00118154
-0.00702855
-0.00323743
-0.00874834
-0.0105098
-0.00254372
-0.00652141
-0.00914089
-0.00104432
-0.00547709
0.00665543
-0.00831372
0.00165829
0.00879776
0.00113699
-0.00641887
0.0081841
-0.00901966
0.000835554
0.00122823
0.00695588
-0.011753
0.00280293
0.00895006
-0.0056181
-0.00559416
0.0112123
-0.0212725
0.0115831
0.00968939
-0.0147126
-0.00655995
-0.00437481
0.0099784
-0.00560358
0.00546944
0.00577101
-0.0112404
0.00171916
-0.0077269
0.00600774
0.0274942
0.00740603
0.0329103
0.141337
-0.238372
-0.190849
-0.00253708
-0.00708661
0.00962366
-0.00683607
0.00429898
-0.00516605
0.0104587
-0.00529267
-0.00180385
0.00360752
-0.00180367
0.0169194
-0.0137178
-0.00320164
0.00113827
-0.00661226
-0.00771517
-0.0341398
0.0418551
0.0332124
-0.0409276
0.0106714
-0.0200229
0.00935155
0.00447649
0.00513555
-0.00961204
0.0197319
-0.0115532
-0.00817869
-0.00980855
0.0171838
-0.00737524
-0.0129395
0.0264802
-0.0135408
0.015435
0.0326478
-0.00616752
0.00430925
0.00386425
-0.00817351
0.0182433
0.0231084
0.0398094
-0.0220818
-0.0177276
0.00887748
-0.0114781
0.00260059
-0.00820227
0.0087701
-0.000567832
-0.0247247
-0.00179326
-0.0122862
-0.0188408
0.0170475
0.0166881
-0.0132388
-0.00344934
-0.0274874
-0.0331343
0.0606218
-0.0610651
0.0358028
0.0252624
0.016192
2.53919e-05
-0.0162174
-0.00870645
0.00454551
0.00416094
0.00320023
-0.00456796
0.00136773
0.00242056
0.00296829
-0.00538886
0.00562079
0.00634837
-0.00165338
-0.00469499
0.00388669
-0.0054131
-0.0042905
0.00441853
-0.00841901
0.00400048
0.00814978
-0.00941525
0.0086999
0.000715352
-0.00546864
-0.00394661
-0.0026375
-0.00612157
0.00875908
0.00102822
0.00703782
-0.00806604
0.00842299
-0.00739476
-0.00223071
0.0110382
0.00884696
0.000496999
0.0060961
-0.00659311
-0.00534829
0.00584528
0.0118786
0.00239709
-0.0142757
-0.00395419
-0.0140913
-0.0116942
-0.00207449
-0.00671173
0.00878622
0.00497771
-0.00705219
-0.000916643
-0.00579509
0.00181041
-0.0104377
0.00862734
0.00362882
0.0051826
-0.00881142
0.00969778
-0.00400879
-0.00441127
0.00513581
-0.000724554
0.00850999
-0.00386503
-0.00464495
-0.00731446
0.00731446
-0.0151813
-0.0225384
0.0377198
-0.00867142
0.00828298
0.00038842
-0.00442603
-0.00241004
0.0259523
0.0040959
-0.0300482
0.0138054
0.0121468
-0.0214953
0.0255913
0.00564513
-0.00335091
-0.00229422
-0.00117017
-0.0049258
0.00609597
0.00447496
-0.00752198
-0.00380644
0.0103214
0.00636667
-0.00147793
0.0117994
-0.00846764
0.0148343
0.0105419
8.62702e-05
-0.0106282
0.00559598
0.00494593
-0.0138958
0.013982
-0.00487037
0.00674733
0.00474729
0.00537849
-0.0101258
-0.00586557
-0.00337391
0.00922991
-0.00172821
0.00422558
-0.00249736
0.00301593
-0.00630908
0.00329315
0.0155785
0.00196786
-0.0175464
0.00438289
-0.0115625
0.00717961
-0.003583
-0.00396097
0.00754396
-0.00539383
0.00546191
-6.80829e-05
-0.0483748
0.0678368
-0.019462
0.00522103
-0.00888358
0.0087075
-0.0021851
-0.0065224
0.000802778
0.0478765
-0.0398771
-0.00799907
0.00470463
0.00264321
-0.00734785
0.00634893
-0.00164432
0.00772171
-0.00507851
0.00903576
-0.0219014
-0.0452275
0.0269508
0.0182767
0.038294
-0.0146367
-0.0236574
-0.0201617
0.0233589
-0.00319722
0.019509
0.000196711
-0.0197057
0.00883999
0.00506624
0.0102577
-0.00715638
0.0122226
-0.0267319
0.0122174
0.0145145
0.00866731
-0.00895569
0.000288379
0.00398306
0.00468425
-0.00575946
-0.00332584
0.00908529
0.00472401
0.00517567
-0.00931374
-0.00201346
-0.00482237
0.00683582
-0.00824591
0.00413149
0.00411442
-0.0102594
0.00291054
-0.0101008
0.00719025
-0.00878618
0.00703267
0.00175351
-0.00587563
0.00479883
-0.00785141
0.00305256
0.0022476
-0.00928019
0.00703259
-0.00343128
0.00343126
-0.00200739
0.00816681
-0.00615941
0.00312269
0.00533501
-0.0084577
0.0198485
0.0199609
0.00194559
0.00842212
-0.0103677
-0.00326986
0.00326985
0.00494222
0.00397752
-0.00244895
0.00739117
-0.00868443
0.0104948
0.000900068
-0.00748313
0.00658305
0.00735494
-0.00131463
-0.00604031
0.008255
0.00299115
0.00319741
-0.00618857
-0.00259379
0.00615781
-0.00356402
-0.006041
0.00615756
-0.000116561
0.00647779
-0.000165694
-0.0063121
-0.00618266
-0.00565039
0.011833
-0.010604
0.00195118
0.00399482
-0.005946
-0.00844263
0.0212798
-0.0128372
0.00151259
0.00575154
-0.00726413
0.00714736
-0.00563478
0.00254536
-0.00254539
0.00804913
0.00248433
-0.0105335
0.00427576
0.00377337
-0.00522508
0.00770941
0.0094813
-0.00825307
0.0018554
0.0069623
0.00888218
0.00669525
0.0092726
-0.00634407
-0.00292852
0.00115683
-0.00897701
0.00782018
0.00867275
-0.00751593
-0.0017094
0.00718225
-0.00547285
0.00414234
-0.00585173
0.00442469
0.00161779
-0.00604249
0.0182378
-0.0163573
-0.00188055
-0.00842929
0.0198013
-0.011372
0.02815
-0.0117258
-0.0164242
0.0268638
0.00128618
0.020922
-0.00850101
0.00193979
-0.00102903
0.00784223
-0.0068132
0.0060498
-0.00694979
0.00089999
0.0105796
-0.0079462
0.00284972
-0.010547
0.0134293
0.00243471
-0.00243474
0.0056409
-0.00676113
0.0011202
-0.00612097
0.00776523
0.00863257
-0.0106539
0.0225495
-0.00886831
0.00749867
-0.0239229
-0.0327912
0.00899056
-0.00314569
-0.00584487
0.00179764
-0.0103209
-0.000612304
0.0109332
-0.0113568
0.01118
0.000176841
0.0320006
0.000777323
-0.0051655
0.00516548
-0.00591223
0.00557899
-0.00600543
0.00507684
-0.0323515
-0.002584
0.0349356
-0.012082
-0.0202695
0.0330574
-0.0356414
0.00644676
-0.00644678
-0.0176397
-0.0085944
0.0262341
-0.0249578
0.0158333
0.00912454
0.00171545
-0.00171547
0.00374231
-0.0037423
0.00631121
-0.000973072
0.00307795
0.00324616
-0.00632411
0.00524559
0.00456687
0.00479345
0.00193603
-0.00672948
0.00125555
0.0052082
-0.00646376
0.00126132
0.00600891
-0.00727023
-0.0384084
0.0207687
0.00318124
0.00359712
-0.00677836
0.0070116
-0.00824813
0.00123653
-0.00448783
0.0074349
-0.00294707
0.00252377
0.00638917
-0.0057422
-0.000646965
0.00268847
0.00370069
-0.00777839
0.000691782
-0.00256366
0.00256369
-0.0223502
0.0409741
-0.018624
-0.0341172
0.0114832
0.022634
-0.0308597
-0.00325747
0.0374009
-0.0259176
0.00636733
-0.00179628
0.00107268
-0.00703859
-0.00469827
0.0117369
-0.0117551
0.00797863
-0.0126769
0.0210983
-0.0142894
-0.00680883
-0.00015868
-0.0320117
0.0177223
0.00838144
-0.00458389
-0.00251545
0.00251543
0.00795606
-0.0151124
-0.00978978
-0.00260013
0.0123899
0.0258965
-0.0332165
0.00731999
-0.0111352
0.0370317
-0.00238935
0.00797845
-0.00558908
-0.00916504
0.00677569
-0.00406469
0.0082609
-0.00419621
0.00436833
-0.00694205
0.00257373
-0.0119642
0.0123992
-0.00681685
0.00107465
-0.00267451
-0.00630701
0.000622027
0.0079845
-0.00860653
0.00681941
-0.00619738
-0.0164189
0.0176164
-0.00119754
0.00618403
-0.0158993
0.00971528
0.00715845
-0.00934355
-0.00251774
0.00251776
0.00120679
-0.0012068
0.0165467
-0.0139719
-0.00257484
0.00826146
-0.00677934
-0.00148214
0.00950026
-0.00123882
-0.00718186
0.00158061
-0.0033687
-0.00381315
-0.00834286
0.00475986
-0.00375322
-0.00650615
-0.00834795
-0.000261297
-0.0054655
0.00572678
-0.0374866
0.0157118
0.0217747
-0.0280258
-0.00780828
0.000551812
-0.00676141
0.00687235
-0.000394557
-0.00314417
-0.00504637
0.00819055
0.00436082
0.00981404
-0.0141749
0.00734079
0.00315347
-0.0104943
0.00417505
-0.00592258
0.00174753
-0.000194124
0.00436917
-0.00258892
0.00774816
0.0074219
0.000135734
0.014714
-0.0148497
-0.0162831
-0.00192221
0.00192221
0.000240689
-0.00216291
-0.0136754
0.00771442
-0.00533734
0.00620583
-0.000868484
-0.000605385
-0.00473196
0.00183835
-0.00183836
-0.000502173
-0.00502365
0.00552583
-0.00453471
0.00639183
0.00726593
-0.00753861
0.000272681
-0.0278841
0.0311828