/*--------------------------------*- C++ -*----------------------------------*\
  =========                 |
  \\      /  F ield         | OpenFOAM: The Open Source CFD Toolbox
   \\    /   O peration     | Website:  https://openfoam.org
    \\  /    A nd           | Version:  6
     \\/     M anipulation  |
\*---------------------------------------------------------------------------*/
FoamFile
{
    version     2.0;
    format      ascii;
    class       volVectorField;
    location    "600";
    object      U;
}
// * * * * * * * * * * * * * * * * * * * * * * * * * * * * * * * * * * * * * //

dimensions      [0 1 -1 0 0 0 0];

internalField   nonuniform List<vector> 
29874
(
(7.5345 0.0624321 1.07967e-16)
(5.39522 0.0280945 -9.97553e-17)
(5.42434 -0.121059 1.98364e-16)
(7.11035 -0.0797882 -1.16809e-16)
(7.81522 -0.119313 0)
(7.43385 0.00463194 -9.69959e-17)
(4.77892 0.0942154 7.63312e-18)
(7.12408 0.0173019 2.39055e-18)
(7.44906 -0.00392719 -1.31142e-17)
(7.19175 0.211827 -1.64327e-17)
(7.20967 -0.115807 0)
(7.24018 0.103566 -3.56084e-17)
(4.45004 -0.0539513 9.2342e-17)
(8.27691 0.0490092 0)
(6.72542 0.203153 1.06373e-16)
(6.60812 0.136907 0)
(4.26111 -0.0199108 0)
(7.80553 0.211467 -1.39014e-16)
(4.96177 -0.0407974 -1.43185e-16)
(7.99518 -0.0693223 -3.53912e-18)
(7.11891 -0.0228825 3.5183e-17)
(7.07124 -0.0256009 7.98093e-18)
(7.03423 0.06056 -9.69797e-17)
(7.52508 0.0375423 0)
(5.75596 0.294386 0)
(7.77274 -0.0103717 -2.5819e-17)
(7.97469 -0.0443274 -8.97413e-17)
(5.06544 0.120497 1.25835e-16)
(5.32826 0.122622 1.94054e-17)
(4.94702 -0.118474 4.75126e-17)
(8.07428 -0.0965948 -2.8042e-17)
(5.34685 -0.0982364 -2.70497e-16)
(7.85766 0.0538332 0)
(5.18753 -0.0344022 -8.67407e-17)
(7.38998 0.13279 3.44896e-17)
(5.47993 0.109729 -1.86145e-17)
(7.04003 -0.001489 0)
(7.28559 0.314579 -6.89978e-18)
(7.5108 -0.105442 -6.61804e-17)
(5.35008 0.0225528 0)
(7.00039 0.0104709 -4.06754e-17)
(7.02985 -0.0192232 8.29836e-17)
(7.30949 0.00842738 0)
(5.62861 0.0459481 -1.10846e-17)
(8.03328 -0.136796 8.25958e-17)
(7.43254 0.0454413 0)
(4.74973 -0.149987 0)
(8.49066 0.0400226 0)
(7.26154 -0.0605333 4.24673e-18)
(7.17549 -0.113637 -6.02511e-17)
(4.48959 0.141144 -9.10415e-17)
(7.88381 -0.100106 0)
(6.77817 -0.00115953 -4.48693e-17)
(6.60727 0.0696752 3.92843e-17)
(7.67494 0.156035 -1.85336e-17)
(7.72007 -0.0110399 5.25051e-17)
(4.68826 -0.0787405 0)
(8.14787 0.0330295 0)
(7.12426 -0.0631437 0)
(7.04587 0.0843436 -7.97727e-18)
(7.27173 -0.129239 1.21027e-18)
(7.2366 0.0159368 -7.52354e-17)
(7.22214 -0.232452 -1.2257e-18)
(7.48506 0.0150013 0)
(5.81275 0.0537911 -4.37453e-17)
(7.46355 0.0322269 -3.83491e-17)
(7.74938 0.141767 -2.05172e-20)
(7.60265 0.00558186 7.64088e-17)
(7.64512 -0.0935258 4.12056e-17)
(7.4979 -0.0809518 3.99303e-17)
(8.2513 -0.138661 3.74586e-17)
(7.61444 0.0178164 5.00248e-17)
(7.53143 0.104096 -3.25444e-16)
(5.65331 -0.132987 4.03547e-16)
(7.03985 -0.129628 3.8661e-17)
(8.07361 0.1214 0)
(7.81116 -0.109603 -1.67699e-17)
(8.0112 -0.0993148 1.69045e-17)
(4.99669 0.111098 6.51212e-16)
(7.35298 0.09614 -1.8372e-16)
(5.39109 -0.0940526 -9.6027e-17)
(7.10917 -0.150662 1.1256e-18)
(6.96771 0.157558 0)
(7.43826 0.197065 -3.73723e-17)
(4.59751 -0.365232 0)
(5.05951 -0.222268 -4.05706e-17)
(7.36361 0.00982825 -5.55809e-19)
(7.03618 0.0425268 2.05366e-17)
(7.94828 -0.10777 9.6179e-17)
(7.55226 -0.0669292 5.1376e-17)
(3.80286 -0.693142 -4.42221e-18)
(7.00466 0.0792733 4.81871e-17)
(6.95614 0.133789 -2.78314e-17)
(7.46528 -0.0348533 2.81826e-17)
(7.20958 -0.126535 0)
(6.68307 0.100985 0)
(7.09939 -0.229907 -1.99822e-17)
(4.61879 -0.00319693 8.86255e-18)
(3.48097 -0.560235 -2.16628e-17)
(6.46455 -0.0603637 1.20976e-17)
(7.52507 0.050762 -2.77668e-18)
(7.0201 0.0953273 1.25603e-17)
(6.99039 0.0915288 0)
(7.35165 0.0837569 -8.26529e-17)
(7.10085 0.0917718 -6.19334e-17)
(3.52148 -0.391795 3.97063e-17)
(3.92421 -0.509284 -3.01743e-17)
(7.50355 0.00650963 6.04237e-18)
(7.59189 0.0126566 0)
(7.25091 -0.131248 -9.11844e-18)
(3.87079 0.132987 -2.72057e-17)
(7.95109 -0.172771 8.48125e-17)
(8.01016 -0.174319 -9.08503e-17)
(6.96801 0.121828 0)
(6.97418 0.135012 0)
(6.98361 0.104116 -5.56413e-17)
(6.87717 -0.309011 8.45385e-18)
(7.23102 -0.185226 1.05414e-16)
(0.468341 0.0872505 -6.23454e-17)
(7.04166 0.0861331 2.48558e-17)
(6.97364 0.132543 4.25302e-17)
(8.24626 -0.199725 -1.24644e-16)
(7.20313 -0.104316 -1.07931e-19)
(7.14285 -0.13716 4.29781e-18)
(7.25737 -0.133108 7.14005e-18)
(6.64629 0.16225 -4.49943e-18)
(7.47733 -0.143474 0)
(7.20493 0.231959 -2.01802e-17)
(7.02067 0.111218 -4.93493e-17)
(6.55566 -0.276017 4.20404e-17)
(6.99953 0.00706275 0)
(6.7489 -0.266331 3.00327e-17)
(7.13475 -0.123712 -5.27954e-17)
(7.07894 0.0955166 9.93577e-17)
(7.28866 0.117706 4.18175e-17)
(7.10996 0.057242 -3.34726e-17)
(7.25326 0.118644 7.61157e-17)
(7.05516 0.00892866 -9.75489e-18)
(7.35468 0.276216 7.89412e-19)
(7.107 -0.161389 5.99425e-17)
(7.70854 -0.265117 -7.17002e-18)
(7.76638 -0.0402748 0)
(7.02245 -0.19504 -1.49793e-17)
(7.47284 0.266205 -2.35158e-17)
(7.21044 -0.056378 -5.53898e-17)
(7.14636 0.188628 -8.27118e-18)
(7.36027 0.0331836 3.76553e-17)
(7.3196 0.0715706 5.69165e-17)
(7.00348 0.00659515 -3.08809e-18)
(6.63436 0.123572 -5.43184e-18)
(7.80109 0.0906724 3.3626e-17)
(7.87912 -0.11399 9.39288e-18)
(6.48559 0.196903 0)
(6.92652 -0.0938059 1.41148e-17)
(7.38457 -0.0749705 2.44788e-17)
(7.02418 0.0606705 3.83345e-17)
(7.06698 -0.0138267 2.28615e-17)
(7.70383 -0.188145 -3.70413e-17)
(7.93744 -0.0968808 3.86839e-18)
(7.95862 -0.132964 0)
(7.71096 -0.138981 -7.05917e-17)
(7.22433 0.10062 1.93827e-16)
(6.89656 0.150242 -6.42037e-16)
(7.65709 -0.172489 0)
(7.76645 -0.178278 0)
(7.75205 -0.158127 7.15849e-18)
(7.69025 -0.169762 0)
(7.17065 -0.0716014 0)
(7.05979 -0.0171142 -5.88899e-17)
(7.50171 -0.184944 2.16674e-17)
(7.75791 -0.111333 0)
(7.67767 -0.160076 0)
(7.59368 -0.122933 -1.21548e-17)
(4.38097 -0.0178184 -3.70991e-17)
(4.0648 0.104635 7.29511e-18)
(7.49796 -0.141461 0)
(7.30793 -0.16743 1.78344e-17)
(1.16363 -0.0983277 -5.05067e-17)
(6.93357 0.0260831 -1.59654e-16)
(6.78233 -0.0213572 8.15121e-17)
(1.1453 -0.0752771 0)
(1.12206 0.0216087 0)
(5.00351 -0.0786862 -2.21261e-17)
(6.91777 0.118842 -3.3559e-17)
(6.57452 -0.0337389 1.57944e-18)
(8.24814 0.0597924 -3.71955e-17)
(7.02995 0.132292 -1.14671e-17)
(7.01955 0.113984 -8.79398e-19)
(7.03502 0.0818134 4.17645e-18)
(6.98299 0.126874 2.09153e-17)
(6.98545 0.10008 1.53272e-17)
(8.3405 -0.124988 1.04869e-16)
(6.89264 -0.126665 7.94602e-17)
(6.71072 -0.213594 -4.20523e-17)
(5.19205 0.0271206 -4.8845e-17)
(7.07485 0.0710016 2.31646e-17)
(7.03539 0.0979848 4.91056e-17)
(7.61638 0.160393 0)
(1.22068 0.0105524 7.51513e-17)
(1.56159 0.0106377 0)
(7.74091 0.196786 7.28535e-18)
(8.09598 -0.0717068 0)
(7.62908 0.448216 -1.50323e-17)
(7.59494 0.28037 -1.4495e-16)
(6.96977 0.0921338 0)
(6.78852 0.116436 4.8665e-17)
(6.89256 0.0931127 7.19056e-17)
(7.37973 0.0851177 3.35381e-16)
(7.08765 -0.182039 -5.90234e-17)
(6.88117 -0.250087 -3.21181e-17)
(7.11715 -0.00902663 4.45374e-17)
(7.30703 0.0294557 -2.75951e-17)
(6.36112 -0.133856 -6.57031e-17)
(6.79981 0.0923055 -1.43664e-16)
(7.27563 0.217645 3.02249e-17)
(7.17335 -0.215597 -5.28404e-17)
(7.2618 -0.187939 -5.10634e-18)
(7.20209 -0.15984 -2.65468e-17)
(7.27974 -0.135989 1.67625e-17)
(7.45572 -0.142059 0)
(7.67337 -0.000970653 -1.00345e-16)
(8.30241 -0.0659247 -3.15097e-17)
(6.89349 0.0114261 5.37713e-17)
(7.42086 -0.0553123 -4.08269e-18)
(7.00108 0.0542772 -6.4112e-17)
(7.3184 0.0538353 0)
(7.60277 -0.0156469 6.28639e-18)
(7.45412 -0.122607 -6.23868e-18)
(7.79989 0.167282 -2.82014e-17)
(6.98952 0.23408 -1.93097e-17)
(7.00361 0.0232218 0)
(7.00145 0.0450432 5.23678e-17)
(7.39742 -0.0848357 -1.23079e-17)
(7.25744 -0.0586072 1.14445e-17)
(6.79474 -0.0917153 4.27328e-17)
(6.92353 -0.0834618 0)
(6.49354 -0.239968 0)
(7.7677 -0.113105 -2.09552e-17)
(7.59501 -0.131169 8.55161e-18)
(7.82485 0.077559 -7.94039e-18)
(8.02161 -0.0780037 5.87555e-17)
(2.46252 1.27996 -7.1665e-18)
(2.94344 -0.471225 7.5398e-18)
(6.03442 2.54751 -2.50567e-18)
(6.21099 2.60759 0)
(2.97299 -1.36632 1.34484e-17)
(2.89539 -1.34693 1.40646e-17)
(7.33607 -3.78575 4.10975e-18)
(6.61853 1.15719 1.56023e-17)
(6.99257 -1.56953 1.33742e-19)
(4.23481 -0.740068 -2.18079e-17)
(6.60716 1.68262 1.03652e-18)
(4.85993 -1.2546 -1.52696e-17)
(4.75872 -0.853096 0)
(7.09645 -0.320097 -6.84004e-18)
(3.2063 -0.458684 -2.27311e-17)
(4.59136 -1.68075 -9.29894e-19)
(0.658451 0.324855 6.75608e-17)
(7.0052 -1.49494 1.62171e-19)
(5.0034 0.32273 1.63223e-18)
(5.97998 -3.55266 1.00903e-18)
(4.83077 -0.453934 -2.38074e-19)
(4.56785 -1.77231 0)
(6.37787 -3.17365 1.42873e-18)
(6.59231 -3.33101 5.34107e-18)
(6.43217 -3.91461 1.93766e-18)
(6.51147 -3.89081 -1.24416e-18)
(6.25102 2.2858 -1.80809e-18)
(6.18802 2.40419 1.97787e-18)
(0.714683 -0.372541 0)
(3.12168 -1.33779 2.76955e-18)
(3.03421 -1.28389 -1.94277e-17)
(4.02858 -0.685082 1.86324e-17)
(5.78774 -1.53458 -1.00975e-17)
(6.65724 2.82907 4.42671e-19)
(5.94323 2.8311 1.32633e-19)
(5.80024 -4.23862 1.3054e-18)
(1.47741 0.562414 -1.93036e-17)
(5.99876 2.4729 -3.37123e-18)
(6.53478 -2.38796 0)
(6.62747 -2.27171 1.14325e-20)
(6.86976 1.79602 -4.40418e-19)
(6.7917 1.79774 0)
(6.45971 2.03086 -2.37006e-18)
(6.51159 2.07485 0)
(5.93735 1.50919 0)
(6.69325 1.89303 -1.1814e-18)
(6.75543 1.88816 1.02331e-18)
(3.22304 -0.58745 3.14908e-17)
(3.3337 -0.633403 3.08728e-17)
(5.7952 2.75032 -2.57262e-18)
(6.08939 2.66242 0)
(6.07721 2.65915 0)
(7.14319 -3.09855 4.05605e-18)
(7.1237 -3.49274 6.56449e-18)
(4.82913 -0.715909 0)
(4.90712 -0.330543 0)
(5.88354 -3.92728 1.40943e-18)
(4.6703 -1.03982 3.78461e-17)
(4.17425 -0.888083 -1.07674e-17)
(3.61244 -0.634673 -3.48186e-17)
(4.29393 -2.64944 2.05557e-18)
(6.2768 2.20477 0)
(4.4223 -1.93181 -2.39629e-18)
(6.07132 2.64926 4.29425e-19)
(6.08038 2.62439 -5.43742e-19)
(3.17727 -1.24554 9.94498e-18)
(6.79267 -0.401464 0)
(5.80113 -3.97102 0)
(2.98674 0.0248469 0)
(6.52303 -4.40622 1.36094e-18)
(6.51904 -4.3484 -6.66279e-19)
(5.82124 -4.04765 0)
(5.90372 -4.07262 -2.49735e-18)
(5.76319 -4.11477 1.2659e-18)
(4.85257 -0.436602 7.92347e-19)
(4.8363 -0.623717 2.28956e-21)
(6.72896 -3.59694 -1.82181e-19)
(6.17812 2.28748 3.19351e-19)
(6.14439 2.36089 4.91989e-18)
(6.56036 -3.55581 2.76626e-18)
(6.78815 -4.50085 0)
(3.10843 -1.48058 -7.55602e-18)
(3.05199 -0.308588 0)
(6.08798 2.35803 -5.29462e-18)
(6.06864 2.39886 0)
(6.05645 2.29177 0)
(7.07317 0.254631 -1.86791e-17)
(4.88853 -0.428635 -2.13681e-18)
(4.85157 -0.620952 -2.33351e-18)
(6.58629 0.511355 -7.89281e-17)
(6.69664 0.392066 -4.97858e-17)
(4.97381 1.24988 1.4782e-18)
(4.91848 1.41436 -1.89362e-18)
(6.56423 -4.30983 0)
(6.11495 -3.87903 1.41286e-19)
(6.24191 2.51335 0)
(6.31573 2.4658 0)
(6.28211 2.44233 0)
(6.28442 2.52934 0)
(3.01829 -1.17417 -5.55581e-18)
(5.6494 -4.10123 0)
(3.00555 -0.482541 1.01313e-17)
(3.09133 -0.478879 -6.49208e-18)
(3.05801 -0.404133 -1.79898e-17)
(3.0437 -0.524096 -5.29143e-18)
(6.39954 2.35872 4.86664e-19)
(6.35192 2.3281 3.71152e-18)
(6.65942 -4.40588 1.39756e-18)
(6.08278 2.64102 4.02918e-19)
(6.63619 1.56947 9.35399e-18)
(7.47559 -0.443873 0)
(6.62756 -2.40882 1.78814e-17)
(6.99692 -2.85332 3.74136e-18)
(6.13986 -2.02025 0)
(7.06714 -0.351504 2.88473e-18)
(3.2274 -0.336109 0)
(3.24494 -0.113958 0)
(5.71028 -0.796534 0)
(0.653094 -0.203786 6.30483e-17)
(6.65098 -2.78354 -5.81388e-19)
(2.79537 -1.87009 -1.1456e-18)
(6.93327 -2.71375 0)
(3.03204 -0.630291 4.67857e-18)
(3.02443 -0.826281 1.0072e-17)
(6.09452 2.65561 -9.01097e-20)
(6.09116 2.647 -1.53143e-20)
(6.10758 2.65581 1.30009e-19)
(6.16865 0.334793 -8.03648e-17)
(3.43663 -0.160626 3.08667e-17)
(3.30814 -0.315831 2.21946e-18)
(3.45369 -0.319357 -3.42326e-17)
(3.32373 -0.152318 -2.33391e-18)
(6.98927 0.174107 2.0867e-17)
(7.05307 -0.255462 -3.08439e-18)
(3.47358 -0.0918017 -2.48841e-17)
(3.75496 0.0548632 -5.93642e-18)
(3.72336 -0.114834 1.09362e-18)
(3.61841 0.621438 0)
(3.82455 0.367761 2.65239e-17)
(2.94648 -1.16203 0)
(2.93085 -1.06802 6.75602e-21)
(6.60132 -0.584232 7.81492e-18)
(6.65379 -0.369592 3.30125e-18)
(6.17535 2.44843 -5.10777e-19)
(6.21053 2.50174 5.38841e-19)
(3.40758 -0.260581 1.80041e-17)
(6.36461 2.47183 0)
(6.39842 2.4208 0)
(6.38588 2.55054 0)
(6.84706 -3.58118 5.80968e-18)
(7.04906 -3.61693 0)
(2.85652 -0.451516 -6.461e-18)
(6.91362 -2.94643 -5.97605e-18)
(6.69144 -3.19347 5.99484e-18)
(6.62003 -4.45932 0)
(6.55938 -4.4089 -1.43515e-18)
(6.62408 -4.40784 5.73858e-20)
(6.5605 -4.46878 0)
(6.71613 0.28673 0)
(6.47102 -3.74007 6.26212e-20)
(6.53377 -3.82564 1.28872e-18)
(6.56564 -3.66 -1.33561e-18)
(6.42146 -0.434127 -4.14437e-17)
(6.44038 -0.557087 5.62491e-17)
(6.51004 -0.374478 -6.31568e-17)
(3.08254 -0.260192 5.60759e-18)
(3.1721 -0.164723 -5.78591e-18)
(3.10229 -0.161527 -2.92089e-18)
(3.16277 -0.267186 2.80695e-18)
(4.34348 -0.411811 -3.19807e-17)
(4.11876 -0.523283 1.11385e-18)
(4.24329 -0.541572 0)
(4.27891 -0.312739 1.94404e-17)
(6.83608 0.578189 1.89755e-17)
(3.83472 -3.71462 2.97909e-18)
(4.01663 -3.50133 1.24538e-18)
(3.31913 -1.79658 6.14598e-20)
(3.17176 -1.83273 -5.31418e-18)
(3.06845 -0.137223 -5.15537e-18)
(3.07372 -0.0207376 5.5274e-18)
(2.9763 -0.157776 0)
(4.08822 0.491591 0)
(3.82038 0.782539 9.3044e-18)
(4.28596 -0.232194 0)
(4.079 -0.0222983 0)
(4.00552 -0.212605 0)
(4.30192 -0.101764 0)
(6.59336 -2.07217 2.66409e-20)
(6.60005 -2.14344 0)
(6.24938 -3.67019 1.19196e-18)
(6.2879 -3.79094 0)
(6.36167 -3.70758 1.93426e-19)
(6.20629 -3.70634 -3.30959e-18)
(4.86579 1.48735 0)
(6.31916 -3.27321 -5.19852e-18)
(6.10253 -3.46391 0)
(4.76343 1.98443 -9.74421e-19)
(4.95502 1.54189 0)
(3.67417 -0.377609 -2.46944e-17)
(3.91262 -0.227468 0)
(3.75905 -0.184447 0)
(3.88973 -0.377019 3.05073e-17)
(3.36331 -1.12984 4.26418e-17)
(3.30424 -1.25304 -1.53091e-17)
(6.92566 0.141546 -4.99627e-18)
(6.5648 -0.0674335 9.49662e-17)
(6.52122 -0.17725 0)
(6.4765 -0.133125 9.45419e-17)
(6.60403 -0.154377 0)
(3.3062 -1.02566 -1.8484e-17)
(3.38338 -0.890501 0)
(3.18518 -0.986033 0)
(4.40981 -1.09165 -2.59292e-17)
(4.5788 -0.724558 -1.16254e-17)
(4.39478 -0.822049 1.20132e-17)
(6.2694 -3.95464 9.71981e-19)
(6.28466 -3.85908 1.59593e-18)
(6.34946 -3.89048 -9.72312e-19)
(6.22615 -3.88633 -2.05684e-18)
(6.79265 -3.51126 -7.46928e-18)
(6.66217 -3.37868 -4.74218e-18)
(6.82949 -3.40498 1.71387e-18)
(6.63679 -3.49697 -3.36304e-18)
(4.68594 -1.25116 0)
(4.66494 -1.36009 0)
(4.68202 -1.24055 -2.32867e-19)
(5.93183 2.87997 5.8929e-20)
(7.34799 -0.185359 -2.98474e-17)
(7.16783 -0.217944 3.42742e-18)
(7.24102 -0.207522 1.85681e-17)
(7.27553 -0.187941 -1.25037e-17)
(6.13817 3.02328 -1.80305e-19)
(5.20741 -0.148605 5.29632e-17)
(6.03363 2.48078 -1.7365e-18)
(6.04352 2.5183 -8.12236e-19)
(6.07762 2.44404 1.4443e-18)
(3.36396 -1.37791 0)
(3.28448 -1.52668 0)
(3.54796 -1.39839 2.66866e-17)
(5.72466 -1.21458 5.81286e-18)
(3.49662 0.376841 0)
(3.66996 0.379164 2.513e-19)
(3.59944 0.298682 0)
(3.57301 0.509135 -1.10363e-17)
(6.93503 0.441032 2.44739e-17)
(3.0339 -0.908908 2.93181e-18)
(2.94081 -1.01753 -6.60537e-18)
(2.94536 -0.947507 3.48427e-18)
(3.03414 -1.00257 0)
(8.03462 0.200789 -6.57337e-17)
(0.590221 -0.0967052 1.21416e-16)
(7.76347 -0.347163 4.51464e-17)
(8.07838 -0.0221913 0)
(1.64051 -0.142883 -3.79804e-17)
(7.08856 0.294653 -1.62123e-17)
(4.67121 0.0634396 -8.15266e-17)
(6.99743 0.0217187 3.87822e-17)
(7.00728 0.110325 -2.51426e-17)
(7.00655 0.0842982 -5.02626e-17)
(7.97059 -0.227683 0)
(3.47974 -0.451946 -3.30439e-18)
(6.75089 0.289107 0)
(6.79634 0.241541 1.89003e-17)
(6.0164 -0.0911118 0)
(6.29471 0.194158 -9.36318e-17)
(6.18351 0.24072 4.97631e-17)
(6.50075 0.0750134 2.63905e-17)
(6.42705 0.118758 0)
(2.93859 -0.278881 6.50515e-18)
(6.91568 0.180326 -4.51604e-17)
(6.89306 0.214669 -4.9546e-17)
(5.36502 -0.173584 -3.28353e-17)
(6.95597 0.302605 1.87764e-17)
(6.94485 0.356191 1.25177e-17)
(2.94951 0.523371 2.70621e-17)
(7.00943 0.0771858 4.44421e-17)
(7.70704 0.340546 -1.94498e-17)
(0.454585 0.13176 -7.64977e-17)
(7.00202 0.147042 -1.25207e-17)
(6.96868 0.234784 3.04164e-17)
(7.19507 0.287304 0)
(5.39804 -0.337936 -6.52852e-17)
(7.4066 -0.207966 9.26084e-17)
(3.13207 -0.326656 3.26901e-18)
(3.25087 -0.235927 -1.71859e-17)
(6.88595 0.899777 1.28443e-17)
(7.01203 0.121185 3.3204e-17)
(7.33138 -0.254005 -2.45208e-17)
(7.38775 -0.270467 -8.56754e-17)
(7.33848 -0.325525 2.81347e-17)
(7.62389 -0.197922 4.14447e-17)
(6.56604 -0.413462 7.28062e-18)
(6.54451 -0.518658 -1.00435e-17)
(7.11962 -0.182187 9.11682e-19)
(7.10443 -0.222643 2.34825e-17)
(7.05756 0.211932 -9.44823e-18)
(6.35049 -0.300621 -7.13473e-17)
(6.70761 -0.426499 0)
(6.6794 -0.545765 0)
(6.94445 -0.153338 -5.38755e-18)
(6.836 -0.157342 0)
(0.430433 0.124803 0)
(3.22683 0.492319 1.53541e-17)
(7.56196 -0.149305 3.21706e-17)
(7.64552 -0.12318 5.77362e-18)
(7.26056 0.405477 1.90189e-19)
(7.06661 -0.222511 0)
(7.13367 -0.191358 0)
(6.68997 0.231193 -1.78256e-17)
(7.58821 -0.38467 0)
(7.00225 0.0704993 -2.3435e-17)
(6.99651 0.0877913 8.45122e-17)
(7.01396 0.180373 -2.27602e-18)
(6.95667 -2.66334 1.30583e-17)
(6.47735 -2.16162 -1.06419e-17)
(6.45063 -2.04877 9.68335e-18)
(5.64702 0.0849557 3.97242e-17)
(7.00962 0.155242 0)
(4.94463 -0.113198 -2.33745e-16)
(7.37757 -0.353848 0)
(6.63876 -0.0672218 -2.42362e-17)
(6.38685 -0.0763942 1.18985e-17)
(6.26013 -0.0786841 1.12117e-17)
(7.11349 0.336817 -2.70995e-17)
(3.57787 -0.591534 0)
(7.47762 -0.37746 8.25101e-18)
(7.432 -0.344048 -3.90869e-17)
(4.71618 -0.142309 0)
(4.91056 -0.132434 0)
(2.89513 -0.92384 8.91524e-20)
(7.8186 0.234627 -9.78247e-18)
(7.22266 0.217546 -3.83086e-17)
(7.30681 -0.0341314 0)
(8.37536 -0.0588236 -1.07728e-16)
(7.16598 0.373646 0)
(7.1311 0.331449 1.30372e-17)
(6.94264 0.195495 -3.37203e-17)
(4.69995 -0.510369 0)
(8.1703 0.108841 -4.09397e-17)
(7.96696 0.188487 -8.58072e-17)
(5.94524 0.0242501 4.96562e-17)
(5.78928 0.0971632 -5.81758e-17)
(7.34199 0.0958776 -1.2968e-17)
(6.34457 2.18457 1.52424e-18)
(6.38141 2.08436 -1.66425e-18)
(5.94153 -0.142227 -2.04205e-17)
(7.00079 0.0212647 0)
(6.98254 -0.326041 -2.43408e-18)
(7.05952 -0.253249 -2.48078e-18)
(7.00334 -0.282242 0)
(8.15747 -0.0278428 1.29363e-17)
(8.08835 0.0350675 -2.58921e-17)
(3.89316 0.494545 0)
(3.77808 0.654944 2.03152e-17)
(6.38638 2.22998 2.61337e-18)
(6.47575 2.17951 -2.41704e-18)
(6.77867 0.0430428 1.49521e-16)
(6.56078 0.0458696 5.5164e-17)
(0.771646 0.169591 1.01753e-17)
(5.15487 -0.0494191 5.20884e-17)
(7.07862 -0.00593009 -9.60057e-17)
(6.94075 0.138067 -4.08765e-17)
(6.87393 0.158553 6.68707e-17)
(6.82412 0.193278 -5.8548e-17)
(7.00963 0.055822 0)
(7.0021 0.0441974 -1.1906e-17)
(6.92605 -0.361902 2.4431e-18)
(6.93081 -0.306751 -8.47893e-18)
(7.00297 -0.265392 0)
(3.58259 -1.31206 -2.91717e-17)
(3.48817 -1.14446 -8.23437e-18)
(3.57927 -1.02028 0)
(6.88152 0.177754 -7.04332e-17)
(6.84542 0.24686 -3.89367e-17)
(6.86884 0.213091 4.64913e-17)
(6.8149 0.262273 6.3187e-17)
(7.8496 0.35353 1.03131e-16)
(7.79866 0.307614 -4.45654e-17)
(7.83989 0.23333 0)
(6.76528 -0.0819874 2.94278e-17)
(3.00295 -1.49543 -7.38722e-18)
(6.60271 0.104615 -2.64586e-17)
(6.56627 0.153585 4.49362e-18)
(6.94037 0.0595158 1.14659e-16)
(7.2658 -0.082207 1.37839e-16)
(3.57393 -1.57131 0)
(3.37802 -1.65308 4.81451e-18)
(5.617 -0.0458664 -9.40854e-17)
(5.44813 -0.062818 3.88492e-17)
(7.37068 0.101769 0)
(6.83508 -0.0845099 8.97355e-17)
(7.51381 0.0753845 -4.88793e-17)
(7.33289 -0.16425 0)
(7.26205 -3.44978 8.02652e-18)
(7.16776 -3.17306 -8.31025e-18)
(5.03455 0.0677065 0)
(5.20096 0.00830208 -5.04586e-17)
(5.35066 0.0773718 3.42218e-17)
(4.18101 0.299909 0)
(4.34407 0.257931 2.20603e-17)
(6.85724 0.281544 -1.61346e-17)
(6.8447 0.323616 -1.46978e-17)
(6.81536 0.338031 0)
(7.96112 -0.211116 -7.32943e-17)
(7.05376 0.0108334 0)
(6.9688 -0.00476843 -4.05262e-17)
(6.49182 -0.00620426 -1.71635e-16)
(6.32468 -0.0791803 0)
(6.3945 -0.00250594 1.02898e-17)
(7.11991 0.258388 1.79959e-17)
(7.12504 0.295124 3.36261e-18)
(6.20895 -0.0577519 0)
(6.19099 0.0412347 -2.53406e-17)
(6.08038 0.0960768 -1.16512e-16)
(7.01314 0.0300167 0)
(7.54525 -0.351087 0)
(7.67582 -0.301734 0)
(7.67559 -0.273992 0)
(0.80652 -0.111775 -5.26735e-17)
(3.06011 0.469427 -7.5423e-18)
(7.12256 -0.252116 0)
(7.08474 -0.292727 1.21135e-17)
(7.04879 -0.285867 -7.62346e-18)
(3.60494 -0.722549 6.25337e-18)
(3.52322 -0.878402 0)
(7.72149 -0.119595 6.88505e-18)
(7.97735 0.074574 6.46935e-17)
(7.71784 0.152087 0)
(8.92904 0.415341 9.64367e-19)
(8.88065 0.479277 0)
(5.74211 1.7767 1.03383e-19)
(6.39818 -4.72405 1.11089e-20)
(6.64501 0.573599 -7.30173e-17)
(4.83373 0.575043 1.40936e-18)
(5.92092 1.72153 -2.59111e-20)
(2.87815 0.505074 6.82632e-18)
(4.73749 -0.776778 0)
(5.93158 3.18233 2.43181e-19)
(5.14323 -3.56406 0)
(5.16567 -3.64581 0)
(7.079 -4.51237 0)
(6.06482 2.60676 0)
(6.06211 2.60455 3.85552e-20)
(6.01483 2.64255 0)
(6.02019 2.64816 -1.89654e-21)
(5.83179 1.05567 0)
(6.85152 0.426343 -2.57088e-19)
(6.73049 -2.60086 0)
(4.28264 -2.7713 1.08316e-18)
(5.06518 0.393216 1.64291e-19)
(5.9605 -2.67284 5.49807e-20)
(6.00529 -2.72836 -6.58815e-20)
(6.91895 -4.60977 -1.43291e-19)
(6.92927 -4.61868 0)
(6.13999 1.47199 0)
(7.53365 0.974132 0)
(1.49639 -1.6567 4.33266e-17)
(2.75352 0.0919311 -2.22587e-18)
(2.79528 -3.1831 -5.26573e-18)
(2.61337 -3.07021 0)
(6.23361 2.86317 4.0778e-20)
(6.47131 1.0471 0)
(6.46643 1.09637 0)
(5.36614 1.41023 0)
(4.04843 -3.32307 0)
(6.45487 0.746234 -9.86205e-21)
(2.53739 -0.851026 -5.23695e-18)
(6.35185 1.61622 3.39834e-21)
(4.30015 -2.34382 -1.37341e-18)
(5.81424 1.09051 -8.82301e-23)
(5.06841 1.4857 0)
(5.05713 1.4297 0)
(6.26053 3.02873 0)
(6.95994 0.310641 -2.70044e-19)
(6.70641 -4.66618 7.0673e-19)
(3.6421 -4.39301 1.68158e-18)
(3.80547 -4.09134 4.99658e-20)
(6.16007 1.45031 0)
(7.42541 -0.487444 0)
(5.88312 3.20418 -6.19015e-19)
(5.84097 3.16621 0)
(6.08947 3.11396 4.82623e-19)
(6.68245 -0.775582 1.9905e-17)
(6.967 0.647843 0)
(6.37979 1.27005 -1.64723e-20)
(6.68237 -0.874185 2.30237e-17)
(5.88753 3.53366 -6.06793e-21)
(6.55623 -2.57337 -3.32984e-20)
(6.54763 -2.5208 3.89749e-20)
(7.01549 -4.44056 7.53193e-19)
(7.02709 -4.41586 2.63685e-18)
(6.45337 0.931136 -1.80128e-20)
(6.45728 0.862884 -4.25828e-21)
(7.65211 -0.209688 9.32756e-19)
(6.02817 2.60826 0)
(6.04997 2.60503 -3.56781e-20)
(8.19468 0.974887 1.66354e-18)
(5.91762 1.46145 2.14235e-20)
(5.87415 -4.54449 1.67271e-18)
(5.4349 -3.01779 -2.07562e-18)
(5.69919 3.13355 -3.94302e-20)
(6.17258 -2.85943 2.04837e-20)
(6.75044 0.355902 0)
(5.86625 -2.38101 4.1907e-18)
(5.87633 0.835012 -6.6894e-18)
(6.06951 -1.94876 0)
(3.83658 -1.30643 3.24668e-17)
(8.22391 0.0435148 2.6658e-20)
(3.46679 2.25833 -2.59183e-18)
(5.61586 2.55054 1.52414e-18)
(5.57024 2.50971 -1.49667e-18)
(6.40623 1.45254 0)
(4.73778 -0.953795 -2.19683e-19)
(4.70174 -1.16671 -2.05213e-19)
(6.07027 2.62295 2.18685e-19)
(6.03976 -2.83891 4.5067e-20)
(4.97036 2.24425 -2.17383e-19)
(2.89141 -0.0713348 6.534e-18)
(2.96018 0.0912131 1.17729e-17)
(6.82129 -1.63188 1.19446e-19)
(5.81917 1.44204 8.21645e-20)
(5.82282 1.48453 -1.31848e-19)
(6.17793 -4.73635 -8.72848e-19)
(6.07467 -4.72287 -2.29675e-20)
(7.38333 0.361009 2.42937e-19)
(7.39274 0.4089 1.69266e-19)
(6.80132 -2.02209 0)
(6.24987 0.735863 -3.04291e-20)
(5.01981 1.9199 1.06788e-18)
(5.0992 1.85124 1.32901e-18)
(6.72368 3.32803 9.34051e-20)
(6.28002 0.903773 2.94047e-21)
(5.18017 -4.21292 -9.1941e-19)
(6.03979 3.32925 1.58005e-19)
(6.10532 3.23194 2.73274e-20)
(4.9823 -0.295466 -9.0135e-19)
(5.0021 -0.436402 -4.3295e-19)
(6.97238 -0.889005 0)
(6.0771 0.832103 9.27274e-20)
(6.97731 0.843507 0)
(6.83506 0.835669 1.09632e-19)
(5.96955 1.02319 -1.24337e-19)
(4.59208 -1.78188 0)
(4.57054 -1.80913 0)
(5.88046 1.40885 1.71833e-20)
(6.60999 0.320775 -4.79599e-20)
(7.13557 -4.39137 0)
(5.63549 1.85588 0)
(7.39287 -3.95931 0)
(6.50057 -4.77083 4.72325e-19)
(6.48127 -4.79313 8.4074e-19)
(5.10889 0.308026 1.11893e-18)
(5.09305 0.210159 -1.01654e-18)
(3.4314 -1.02289 -4.2185e-19)
(7.86471 -4.36765 8.54435e-19)
(7.38456 -2.88467 7.98632e-20)
(1.17902 -3.26418 4.99297e-18)
(7.55888 -3.91724 3.21866e-19)
(5.86478 2.67055 -9.7824e-20)
(6.13825 2.61963 5.15153e-19)
(6.72667 -0.674362 -1.26832e-19)
(6.77342 -0.636357 5.69371e-20)
(5.65751 2.99378 6.61787e-20)
(4.79664 -0.73427 8.57693e-19)
(4.20029 -3.59904 4.67729e-18)
(5.97863 1.64927 0)
(8.5409 -1.99305 1.82107e-18)
(6.60104 1.16082 8.29464e-20)
(6.61127 -1.4457 0)
(6.07477 0.98705 3.78475e-20)
(6.16893 2.01817 6.99324e-19)
(6.12423 1.97475 -1.43441e-18)
(7.11848 -0.335103 2.35776e-19)
(7.09608 -0.240304 -4.25409e-19)
(5.69219 -3.13102 -2.52452e-19)
(5.16135 1.03839 -6.05694e-19)
(6.13761 2.63949 -1.18409e-19)
(6.18686 3.13867 -3.16524e-22)
(6.37046 1.41018 3.76836e-21)
(5.74084 1.65779 9.79457e-20)
(6.20129 0.83129 0)
(2.35983 -1.90144 0)
(4.75184 -0.663722 0)
(7.46362 1.63802 9.91341e-20)
(6.8924 -0.728848 1.1601e-19)
(6.75358 -2.03828 -7.01548e-20)
(6.65979 -2.13104 0)
(5.14049 0.0551516 -1.01547e-18)
(5.15476 0.0296457 0)
(5.20056 -3.47404 8.81165e-20)
(5.33062 -3.55123 -3.3706e-19)
(6.38105 -1.37867 0)
(7.37176 -0.0436879 0)
(7.35939 0.0123317 0)
(6.98781 -4.58627 0)
(6.95075 -4.60972 0)
(6.26213 2.74397 2.00684e-20)
(6.27551 3.05765 3.61353e-21)
(6.27042 3.08771 -2.35676e-20)
(6.11623 2.63347 -1.37169e-19)
(6.87065 -1.79999 1.32988e-19)
(6.81432 -1.93805 5.44947e-20)
(6.72435 3.37239 -2.08644e-19)
(5.67412 1.78532 0)
(5.72742 1.658 1.93808e-19)
(5.73404 1.58407 9.38984e-20)
(6.34675 1.1207 3.79017e-20)
(6.42688 1.11345 -4.31841e-20)
(7.58115 -4.43227 4.17752e-18)
(7.62097 -4.37342 0)
(5.98057 2.42833 -2.47601e-20)
(6.6405 -1.30454 3.27657e-20)
(6.64325 -1.41754 0)
(2.92323 0.617822 -7.08261e-18)
(2.88665 0.576323 8.05141e-18)
(2.91715 0.734292 -3.61165e-18)
(6.8312 -4.5013 8.63698e-19)
(5.89309 -0.461663 0)
(6.06921 -1.29936 0)
(5.73038 0.818612 2.37134e-19)
(5.62298 -2.61668 0)
(5.19664 0.995011 -6.29066e-20)
(5.21325 0.851554 7.60086e-19)
(7.10517 -3.95751 3.89251e-18)
(6.68467 -0.682028 -1.46859e-19)
(6.0484 2.61362 -1.93912e-19)
(6.58552 1.98256 3.60047e-20)
(7.21329 -0.684115 0)
(7.27993 -0.532789 0)
(5.88716 0.452111 9.30222e-21)
(6.85836 -2.38855 2.1089e-19)
(6.56915 -4.80149 -1.90185e-19)
(6.47629 1.5644 9.26799e-19)
(6.85657 0.798718 0)
(6.94201 0.800322 0)
(6.27765 -4.66384 5.11152e-19)
(6.39403 -4.66633 0)
(7.13444 -4.82526 -6.82428e-19)
(5.20613 0.530961 0)
(5.00677 -0.199432 1.50516e-19)
(3.276 -3.20076 0)
(6.10467 2.61045 1.28985e-19)
(6.33867 -4.80753 0)
(6.1081 2.6168 6.02586e-20)
(6.13497 2.62794 -1.19953e-19)
(5.09051 -3.69489 2.45589e-19)
(4.94897 -3.77135 0)
(6.92611 -1.19054 0)
(6.91677 -1.26336 0)
(7.3625 1.23288 0)
(6.09455 2.61415 -6.33733e-20)
(6.06943 2.60992 1.93492e-19)
(6.13026 2.62168 -7.36236e-20)
(6.14097 2.6224 6.36854e-20)
(6.11894 2.61671 9.51963e-22)
(6.50655 0.854144 -5.00481e-20)
(5.36644 1.3586 0)
(8.45671 -2.03649 7.58474e-19)
(6.23568 2.88954 3.04904e-20)
(6.10191 2.72583 -3.7903e-19)
(6.08003 2.72458 0)
(5.65942 -4.59831 -3.59514e-19)
(5.64908 -4.63376 3.70343e-19)
(6.06485 1.46113 -2.74708e-22)
(5.07262 0.977518 -4.46728e-20)
(4.90937 -1.51515 -1.82591e-17)
(4.55516 -1.19164 2.01133e-17)
(5.59444 -1.85469 1.42336e-18)
(5.82117 1.60421 9.24272e-20)
(4.81474 0.49068 -2.2446e-18)
(5.98801 2.64183 -1.45997e-19)
(6.18882 2.64932 1.94987e-20)
(7.61541 -4.34543 -1.04599e-18)
(5.16309 1.73123 0)
(5.0779 -0.532007 -6.06305e-19)
(6.00909 2.66606 4.66647e-19)
(6.01138 2.65572 -6.31897e-19)
(5.99092 2.674 -1.31732e-19)
(6.30338 -2.49039 3.34371e-20)
(6.70939 -1.73883 0)
(7.56872 -4.18468 9.772e-19)
(6.55605 -1.7967 -2.21081e-21)
(6.47762 -1.89815 3.54041e-20)
(6.7588 0.836259 6.49381e-20)
(6.79102 -4.56849 -1.39641e-21)
(6.71605 -4.61186 0)
(5.87664 -3.34319 5.39418e-19)
(7.29713 -4.64235 2.7692e-19)
(6.24964 -3.62698 1.1549e-19)
(6.64074 -4.75444 6.99615e-19)
(7.31375 -1.27633 -5.27395e-20)
(3.84207 -3.876 -1.37924e-18)
(3.88202 -3.92925 8.57862e-21)
(1.67485 -1.41807 1.66605e-17)
(6.72648 -4.58232 2.52277e-19)
(6.69595 -4.56339 0)
(6.76346 -4.55733 -2.89229e-19)
(2.76471 0.717531 -1.01001e-17)
(5.23962 1.31244 -2.75896e-19)
(5.24656 1.39191 1.44329e-18)
(6.08838 -2.1226 0)
(6.6799 -4.62073 6.32896e-19)
(7.05246 -0.829845 -8.54897e-20)
(7.11253 -0.760561 -1.01755e-19)
(6.1292 -0.695499 -1.14206e-19)
(6.55762 1.08142 5.01232e-20)
(5.32935 3.03652 -5.39127e-19)
(3.1231 0.537746 0)
(7.38894 -3.90598 0)
(6.44083 1.64505 4.69002e-18)
(6.44019 -2.61768 -3.94757e-22)
(5.76904 2.8 1.37229e-18)
(5.76077 2.92752 -6.40518e-19)
(6.3344 -1.3999 0)
(6.33092 -1.50028 2.2372e-20)
(6.28069 -1.55176 -8.19737e-20)
(7.22058 -4.58033 1.15737e-19)
(4.20949 -1.83647 -3.87798e-18)
(6.43202 2.85665 -7.49884e-20)
(6.32543 2.97982 2.60737e-19)
(2.25173 -0.978509 -1.33748e-17)
(6.20944 2.90744 1.13868e-18)
(5.66171 -3.82671 0)
(6.05732 3.0372 1.12756e-19)
(6.02202 3.12816 -9.8383e-20)
(6.92533 -4.5595 -4.56653e-19)
(5.19165 -0.585109 -7.25397e-19)
(6.11891 3.27607 0)
(6.09098 3.32649 -5.27958e-20)
(4.97736 0.420557 -8.28211e-19)
(4.32627 -3.77683 8.39657e-19)
(6.76051 0.733207 2.60831e-19)
(4.5431 2.27124 -2.15508e-20)
(5.53126 -4.41806 5.75078e-19)
(5.3585 -4.36151 -1.34087e-18)
(6.1836 2.74729 -4.92454e-20)
(6.04343 -0.839655 0)
(4.93563 -0.115052 -1.0192e-19)
(4.92241 -0.258476 0)
(4.91046 -0.232494 9.51221e-20)
(4.97247 1.93494 -1.37396e-18)
(6.16521 -2.11563 -1.04576e-19)
(6.26587 -2.06333 0)
(6.43444 -2.02453 1.18148e-20)
(6.4379 -1.92731 -3.57544e-20)
(6.80948 -1.86962 3.70643e-20)
(6.83713 -1.78818 -1.48173e-19)
(7.02849 -0.797436 -8.35242e-20)
(6.97854 -0.818674 8.30565e-20)
(7.03091 -0.680522 0)
(5.12669 0.994533 -2.93931e-21)
(5.09636 0.938689 -1.43973e-18)
(4.80838 0.672156 3.8082e-18)
(6.43222 -1.64345 9.56866e-21)
(6.42289 -1.74628 0)
(6.84986 -4.60607 2.39609e-19)
(6.89658 -4.59426 -2.32106e-19)
(6.25503 -4.4135 -3.07478e-18)
(6.28844 -4.46893 1.54143e-18)
(5.09524 -4.2473 -6.72047e-19)
(4.95544 -4.15494 -5.89841e-19)
(6.74448 1.03356 2.28607e-19)
(5.90698 -3.82977 -1.31446e-18)
(5.79095 -3.78284 1.0746e-18)
(6.57032 -0.673637 -3.81012e-17)
(6.60768 -0.764284 -2.63249e-17)
(4.25766 -3.24325 2.98444e-20)
(4.23553 -3.25638 0)