/*--------------------------------*- C++ -*----------------------------------*\
  =========                 |
  \\      /  F ield         | OpenFOAM: The Open Source CFD Toolbox
   \\    /   O peration     | Website:  https://openfoam.org
    \\  /    A nd           | Version:  6
     \\/     M anipulation  |
\*---------------------------------------------------------------------------*/
FoamFile
{
    version     2.0;
    format      ascii;
    class       volScalarField;
    location    "1600";
    object      nuTilda;
}
// * * * * * * * * * * * * * * * * * * * * * * * * * * * * * * * * * * * * * //

dimensions      [0 2 -1 0 0 0 0];

internalField   nonuniform List<scalar> 
29874
(
0.251575
0.20722
0.121572
0.155393
0.179039
0.241482
0.217086
0.141058
0.152903
0.141856
0.267967
0.257963
0.182011
0.26288
0.266114
0.283095
0.175199
0.277141
0.118827
0.141927
0.14066
0.143784
0.140536
0.153398
0.144482
0.177059
0.219873
0.143845
0.233397
0.233626
0.229575
0.195398
0.195003
0.220634
0.151482
0.158008
0.142248
0.162895
0.16408
0.20035
0.139905
0.139656
0.145186
0.133089
0.191346
0.160725
0.177981
0.244956
0.238973
0.239782
0.193759
0.291209
0.26749
0.278976
0.19957
0.192914
0.134864
0.169837
0.166089
0.172032
0.163764
0.149104
0.147478
0.16741
0.123467
0.189823
0.238423
0.176397
0.262153
0.283351
0.154935
0.148351
0.144379
0.109379
0.284867
0.230588
0.23198
0.226341
0.182946
0.164772
0.192345
0.109902
0.138328
0.146652
0.0954259
0.109379
0.148784
0.140871
0.18809
0.163258
0.0702468
0.139498
0.13862
0.145334
0.134797
0.138248
0.135939
0.0982636
0.0613123
0.100681
0.150875
0.138569
0.1388
0.167699
0.211668
0.0633746
0.0756215
0.154635
0.158885
0.144486
0.0748396
0.195898
0.205277
0.138529
0.138529
0.138791
0.134813
0.150753
0.000262552
0.142243
0.139785
0.178391
0.130141
0.114537
0.136922
0.138618
0.153168
0.146941
0.142075
0.135035
0.14001
0.137096
0.150507
0.143213
0.143571
0.14328
0.146254
0.134759
0.14381
0.2335
0.200241
0.171774
0.278081
0.169537
0.149491
0.152048
0.170742
0.182881
0.139763
0.276515
0.246799
0.240878
0.294367
0.119268
0.135483
0.140106
0.15024
0.162036
0.183724
0.185254
0.167003
0.181132
0.222258
0.163059
0.215968
0.190102
0.171875
0.150234
0.149357
0.154357
0.194015
0.173004
0.164441
0.0923354
0.0808634
0.155003
0.148101
0.000332057
0.147819
0.145036
0.000270471
0.000249747
0.160474
0.143088
0.140982
0.158861
0.138315
0.138658
0.140697
0.138615
0.138494
0.190389
0.144926
0.139455
0.17067
0.143272
0.141865
0.154941
0.000503449
0.000502708
0.15222
0.150756
0.176745
0.163713
0.141029
0.138947
0.140615
0.216567
0.14674
0.140037
0.142439
0.145684
0.133825
0.141683
0.142993
0.14618
0.145655
0.142598
0.146335
0.152965
0.235802
0.197359
0.197861
0.162336
0.139692
0.146
0.151421
0.149339
0.161392
0.139082
0.139977
0.140014
0.137918
0.129519
0.144516
0.14656
0.135288
0.170923
0.15948
0.195983
0.198649
0.00669702
0.0422001
0.102019
0.107638
0.0379837
0.0358754
0.0426694
0.131725
0.0455356
0.0824574
0.12702
0.078676
0.0397819
0.103923
0.0515496
0.0420768
0.000529382
0.0445188
0.0465336
0.0314189
0.0403142
0.041998
0.0415966
0.044683
0.0412885
0.0431718
0.115534
0.111995
0.000340266
0.0428907
0.040633
0.0962567
0.0699611
0.108548
0.0802992
0.0199543
0.000796014
0.10406
0.0602022
0.0586951
0.126631
0.126486
0.121956
0.121674
0.0708356
0.125209
0.125366
0.0523927
0.05594
0.0848625
0.0887431
0.0901076
0.0424661
0.0444394
0.046964
0.0478236
0.0259925
0.0868167
0.0892477
0.098783
0.02941
0.117372
0.0287468
0.0918217
0.0895784
0.045716
0.127725
0.022653
0.00403048
0.0381205
0.0387926
0.0224691
0.0244467
0.0203446
0.0442497
0.0445195
0.0569836
0.114223
0.112057
0.0442305
0.0439514
0.0407794
0.0459294
0.110585
0.108535
0.111249
0.138261
0.0474089
0.0471327
0.136024
0.136477
0.043066
0.0416383
0.0411809
0.0335492
0.111398
0.112841
0.113004
0.111375
0.0413496
0.017673
0.0442818
0.0481312
0.0463095
0.0460398
0.116354
0.116443
0.0422225
0.090899
0.128262
0.124328
0.0518659
0.0449095
0.0609349
0.105845
0.0530299
0.0534032
0.108352
0.000326526
0.0438507
0.0279757
0.0447621
0.0454247
0.0442678
0.088692
0.0895776
0.0872672
0.132263
0.0606601
0.0562322
0.0597841
0.0564838
0.139529
0.131314
0.06288
0.0706228
0.0688237
0.0630187
0.0727468
0.0397342
0.0397597
0.120566
0.131296
0.110586
0.110507
0.115782
0.11361
0.115176
0.112368
0.0467511
0.0460832
0.0384264
0.0447097
0.0452763
0.0397704
0.0390773
0.0405754
0.038014
0.138064
0.0428885
0.04382
0.04452
0.126781
0.122683
0.130447
0.0478094
0.050714
0.0477701
0.0502976
0.0897397
0.0822307
0.0854765
0.0871388
0.136797
0.0179346
0.0225763
0.0416237
0.0378216
0.0457768
0.0454106
0.0428731
0.0817149
0.0698931
0.0864894
0.0829207
0.0811372
0.088706
0.0590353
0.0588811
0.0388708
0.0386635
0.040841
0.0369079
0.0404284
0.0405109
0.0358164
0.03961
0.0431092
0.0691647
0.0769363
0.0710625
0.0739292
0.0523515
0.0489518
0.139383
0.140172
0.138085
0.136783
0.140562
0.0520723
0.0553085
0.049312
0.0796069
0.0901336
0.0845571
0.0368876
0.0383192
0.0394931
0.0362185
0.0463729
0.0454333
0.0462647
0.0450861
0.042382
0.042096
0.0406381
0.0777402
0.150991
0.144087
0.147634
0.148168
0.0660044
0.113603
0.105061
0.104033
0.107388
0.0487516
0.0449586
0.0524303
0.0714884
0.0611611
0.0673995
0.064717
0.0634826
0.138174
0.0435304
0.0409803
0.0407327
0.0434275
0.165907
0.000255848
0.1373
0.19392
0.000520396
0.138566
0.167995
0.13951
0.139501
0.139538
0.170267
0.117483
0.138033
0.13879
0.104527
0.134677
0.132919
0.138442
0.136612
0.118541
0.13849
0.138131
0.116344
0.138682
0.138441
0.00363123
0.139147
0.142232
0.000220777
0.13839
0.138794
0.140439
0.115251
0.140139
0.118353
0.118514
0.135158
0.139323
0.132125
0.134352
0.127193
0.152412
0.128699
0.124293
0.133857
0.129515
0.138819
0.130557
0.127538
0.121683
0.0964925
0.0952176
0.000226546
0.00537926
0.15757
0.166405
0.138515
0.102565
0.10616
0.139296
0.134022
0.139809
0.139602
0.138299
0.0455818
0.0549046
0.0556496
0.123646
0.139202
0.223971
0.126444
0.101738
0.0961152
0.0966825
0.138675
0.00908686
0.131302
0.132708
0.100635
0.106597
0.0391157
0.148846
0.140513
0.235274
0.203134
0.138314
0.138527
0.138478
0.0956296
0.158271
0.146403
0.128382
0.126568
0.145534
0.118761
0.120491
0.1058
0.139816
0.127199
0.137294
0.133836
0.158753
0.147707
0.0748966
0.0694338
0.118418
0.119874
0.143333
0.140225
0.00073931
0.149711
0.181872
0.142215
0.140345
0.13999
0.139296
0.139828
0.12675
0.134438
0.139211
0.0559142
0.0557932
0.0595763
0.139073
0.138174
0.138379
0.137976
0.139742
0.143373
0.147644
0.110202
0.0376904
0.139478
0.138109
0.145592
0.153685
0.0498664
0.045248
0.121974
0.118919
0.161239
0.2188
0.159306
0.177564
0.0414402
0.0422078
0.110555
0.114378
0.11775
0.0851631
0.091348
0.137812
0.137632
0.137359
0.170749
0.141028
0.13878
0.138709
0.133952
0.135742
0.139119
0.13859
0.132621
0.133063
0.130972
0.139744
0.136999
0.145781
0.149387
0.000442804
0.00428127
0.117554
0.113456
0.122374
0.0636691
0.0594037
0.168003
0.170256
0.15807
0.00577445
0.0067869
0.0770957
0.02727
0.135662
0.0365561
0.0720121
0.0327639
0.0368596
0.0621387
0.0567265
0.0563121
0.0518361
0.0864008
0.0861588
0.0940285
0.0949142
0.0736551
0.0420612
0.0568093
0.031119
0.0509498
0.0649413
0.0646342
0.0444539
0.0443528
0.0636014
0.0294216
0.00316478
0.0308037
0.00367908
0.00242348
0.0703862
0.0525946
0.0528135
0.0642529
0.0228112
0.0525461
0.0249042
0.0586569
0.0262374
0.0740353
0.0471633
0.0462484
0.0623858
0.0397024
0.0365215
0.0150372
0.0180598
0.0627409
0.0289609
0.0616388
0.0635416
0.0929041
0.105705
0.0401213
0.0557511
0.0964355
0.0467723
0.059726
0.0599457
0.050821
0.0509373
0.0526659
0.0524922
0.0252445
0.0874745
0.0865448
0.0151791
0.071649
0.018106
0.00161007
0.0650779
0.0634484
0.0448558
0.00158973
0.00136521
0.0659357
0.0744655
0.0156253
0.00424734
0.0910451
0.091747
0.056098
0.040114
0.0403584
0.0899245
0.064105
0.0480061
0.0386191
0.0403654
0.0517714
0.074705
0.0746404
0.0220782
0.0200304
0.0315062
0.0311615
0.0545001
0.0602203
0.0472708
0.0500998
0.0361493
0.0586499
0.00685718
0.0540351
0.0570398
0.056752
0.0604895
0.0423542
0.0667036
0.0405629
0.0435011
0.0701321
0.0445118
0.0430643
0.0728328
0.048803
0.0508869
0.0761063
0.0385101
0.0284177
0.02737
0.056871
0.0574748
0.0814172
0.00975478
0.0366018
0.00143507
0.0259345
0.088443
0.10502
0.050082
0.0478953
0.0717878
0.0420666
0.032128
0.06958
0.00978795
0.0500249
0.0579638
0.0664611
0.118438
0.118354
0.0358899
0.036404
0.06319
0.0526879
0.0839978
0.0597294
0.0567512
0.0765901
0.0616349
0.0175248
0.0367097
0.0310271
0.0439533
0.055702
0.057954
0.0616317
0.0625184
0.0128924
0.0147402
0.0626081
0.0305243
0.0310537
0.0471408
0.0451884
0.0735944
0.0607883
0.0597128
0.0860984
0.0513115
0.0537281
0.0347382
0.0765639
0.076687
0.0764226
0.0560939
0.053911
0.0373519
0.0346019
0.105213
0.0568869
0.0569941
0.0339169
0.0326158
0.0320147
0.0452086
0.0699692
0.0670809
0.0739984
0.0653525
0.0555671
0.0570028
0.0474769
0.0512622
0.08833
0.0566475
0.0340059
0.0326764
0.0718047
0.053536
0.0290124
0.127201
0.0427928
0.0411727
0.0257305
0.0285269
0.0244339
0.0603031
0.0562761
0.0195842
0.0846792
0.0240245
0.0853645
0.0837846
0.0549764
0.0523892
0.0458267
0.0468079
0.0336969
0.0860273
0.0869417
0.0837759
0.0829583
0.08443
0.0513094
0.0650283
0.0108124
0.0691222
0.0834366
0.0846077
0.0134159
0.0129359
0.0661859
0.0469134
0.0746402
0.0823555
0.0692279
0.0749842
0.0356598
0.092634
0.07966
0.0146676
0.0516603
0.0636938
0.0955594
0.0950385
0.0948425
0.0631168
0.0562409
0.020142
0.0597783
0.0612029
0.0450004
0.0421652
0.0386781
0.0292265
0.0262304
0.0608484
0.0322073
0.0328249
0.018678
0.019641
0.00541156
0.039849
0.0396604
0.0416177
0.0244176
0.0564761
0.056192
0.0654229
0.0373362
0.0389674
0.0373198
0.0670854
0.0504023
0.0664717
0.0431012
0.0417518
0.126136
0.0613912
0.0818318
0.075323
0.0633556
0.0633873
0.0640846
0.0521356
0.0199231
0.105747
0.100887
0.015305
0.100531
0.020369
0.0671502
0.063413
0.046394
0.06623
0.0548335
0.0532596
0.0438666
0.00394744
0.0446158
0.0343639
0.0124961
0.00959331
0.0779956
0.0679727
0.0461695
0.0470282
0.0457769
0.0456849
0.0649502
0.0639651
0.0620765
0.0619124
0.0537746
0.0524854
0.0398672
0.0412898
0.0392637
0.0498169
0.0484076
0.0359589
0.0617604
0.0618769
0.0424964
0.0444523
0.0301231
0.0301304
0.00562849
0.00440106
0.0461215
0.0271545
0.0243662
0.115617
0.109746
0.0332445
0.0314835
0.0362939
0.0332091
0.0301517
0.0432455
0.0381485
0.0422288
0.0469631
0.0314219
0.0962347
0.0920028
0.101829
0.101228
0.100077
0.0551926
0.10599
0.10333
0.0621902
0.0516377
0.0189934
0.0201565
0.0160453
0.0777018
0.0443212
0.0380427
0.0582044
0.0383484
0.0762079
0.0766128
0.0762925
0.0451546
0.0512825
0.0519697
0.0496602
0.0482386
0.059291
0.0593436
0.0615502
0.0549085
0.0562219
0.0562666
0.0574523
0.0374735
0.035973
0.0515976
0.0512933
0.0513296
0.0514954
0.0537032
0.0547765
0.0533404
0.0888233
0.0533838
0.0673841
0.0520701
0.0367971
0.00109717
0.0495576
0.032276
0.0313202
0.102032
0.100747
0.102484
0.0682617
0.0673562
0.0680493
0.0414035
0.0771296
0.0750506
0.0783651
0.0818164
0.0814789
0.0802992
0.0801926
0.0511077
0.0521385
0.0696267
0.0119088
0.0701915
0.0199094
0.0917392
0.0562192
0.0405773
0.122235
0.0171802
0.0569901
0.0571344
0.0480044
0.0449492
0.0433758
0.0461236
0.0867036
0.106449
0.103446
0.0890785
0.0852806
0.0603155
0.0612575
0.0576811
0.047243
0.0681055
0.0677737
0.0377342
0.0391291
0.0823663
0.0356235
0.0334581
0.034148
0.055405
0.0539528
0.0541354
0.00867201
0.0165239
0.000640387
0.065907
0.064876
0.101907
0.0793912
0.000777935
0.046109
0.0446337
0.0894471
0.0482553
0.0502046
0.0496685
0.0487232
0.0647614
0.066138
0.0610732
0.061875
0.0308788
0.0297074
0.0619705
0.00967265
0.0421607
0.0434266
0.000570146
0.0670375
0.0666141
0.0672962
0.0626121
0.0317765
0.0300784
0.0324743
0.00742923
0.0198453
0.0186764
0.0647665
0.0640255
0.0778452
0.0939117
0.0937387
0.0931431
0.10067
0.0993338
0.0996633
0.0413213
0.0655239
0.0648579
0.0885857
0.0870337
0.0877865
0.000530396
0.0319722
0.0592449
0.0592096
0.103842
0.102044
0.102554
0.10338
0.0650009
0.0647475
0.0265203
0.02351
0.108608
0.000949981
0.0742715
0.0733542
0.0488504
0.0493605
0.0477519
0.00102643
0.0936439
0.0887217
0.000456663
0.000788575
0.00180516
0.0764802
0.0763974
0.0762036
0.052033
0.0359789
0.0386592
0.0962777
0.0726773
0.0516362
0.0516688
0.0508383
0.0634643
0.0630754
0.034638
0.000672763
0.099528
0.0480821
0.0484366
0.04668
0.0379362
0.0373441
0.091856
0.092497
0.0916789
0.0934612
0.09322
0.0957437
0.0578723
0.000493042
0.0559317
0.031232
0.106933
0.104135
0.0209147
0.0192932
0.0393167
0.039831
0.0692031
0.0630589
0.0633417
0.0621442
0.0604002
0.0611691
0.0271985
0.0240946
0.0560167
0.000678917
0.000401437
0.0523634
0.0368512
0.0357401
0.0145089
0.014856
0.0552141
0.0338409
0.0323798
0.0399338
0.106225
0.102507
0.0632062
0.0623183
0.0220443
0.0513017
0.0372164
0.0777931
0.0776268
0.0595268
0.0588579
0.0306805
0.0285206
0.000446831
0.000759949
0.0437202
0.0713236
0.0712295
0.000357655
0.0736992
0.0745715
0.0648143
0.0374701
0.0346793
0.0358329
0.0713772
0.091045
0.0947535
0.0955684
0.096464
0.0964169
0.0350931
0.0243433
0.0930884
0.0944246
0.0948772
0.0925355
0.0797251
0.0777403
0.10176
0.0635519
0.0606555
0.0597778
0.0741391
0.0948387
0.0963098
0.0012024
0.00260882
0.0479834
0.0490451
0.0489697
0.0477954
0.046072
0.0507358
0.0691189
0.0695159
0.0582424
0.0506165
0.0513272
0.0408887
0.0378017
0.0398262
0.0385369
0.0654354
0.0658288
0.0650963
0.0657364
0.0530428
0.054167
0.0532766
0.0538661
0.036388
0.0372931
0.0381347
0.0357274
0.0289504
0.0315174
0.0285467
0.000682663
0.00115118
0.0408129
0.0413964
0.0560667
0.0545026
0.0552666
0.0553423
0.0269058
0.0308001
0.112703
0.114755
0.107947
0.0386904
0.0901705
0.0924855
0.0483717
0.0482826
0.0487072
0.0482312
0.0676623
0.0676775
0.0751412
0.0742387
0.0850313
0.0860235
0.0485067
0.0471202
0.0471218
0.048417
0.0910704
0.0915912
0.0908309
0.0917605
0.0120645
0.0202466
0.0877064
0.089648
0.0894399
0.0877556
0.0880506
0.047752
0.0477799
0.0491253
0.00133351
0.0208632
0.0198287
0.0234099
0.0531887
0.0535537
0.0514785
0.0492184
0.0923438
0.0396181
0.0408932
0.0452148
0.0469485
0.0449008
0.0485519
0.0498398
0.0498159
0.0323639
0.0488181
0.0491745
0.048554
0.0495422
0.0360812
0.0348876
0.0365697
0.048625
0.0497339
0.0490597
0.0559251
0.0570039
0.0570335
0.0557579
0.0710612
0.070524
0.071291
0.110871
0.108052
0.109256
0.0663553
0.090709
0.0907534
0.0911765
0.0903203
0.0473879
0.0472189
0.0465081
0.0480642
0.0349576
0.0388712
0.0404139
0.0496933
0.0509941
0.0502435
0.00460837
0.00466252
0.0450642
0.0383955
0.0131172
0.0156448
0.0433771
0.0421285
0.0445314
0.0569441
0.0586082
0.0576685
0.0438338
0.045262
0.137106
0.137337
0.0220684
0.0458751
0.0444539
0.045896
0.0426694
0.0404454
0.0235992
0.0471466
0.0465677
0.0141952
0.0177441
0.0537988
0.0696429
0.0688942
0.0693492
0.069226
0.00803273
0.0078282
0.0467489
0.0443664
0.0464825
0.0439111
0.0186107
0.0724145
0.0981554
0.00772478
0.0599662
0.0590597
0.0963422
0.0983359
0.0968778
0.050325
0.0459095
0.0516084
0.0476189
0.0469868
0.0835757
0.0802271
0.0815289
0.103419
0.105012
0.104595
0.103754
0.0671738
0.0683637
0.0678882
0.0128684
0.0125691
0.0513856
0.0506231
0.0503343
0.0949633
0.098655
0.0660651
0.0660038
0.0663811
0.0656442
0.0435186
0.0403676
0.0415073
0.0421715
0.0321076
0.0413267
0.0403443
0.0591211
0.0579552
0.0583952
0.0587715
0.0433583
0.0425771
0.0435603
0.0422849
0.0757279
0.0760307
0.0760697
0.0556565
0.0554418
0.0568155
0.0586271
0.0588886
0.0593369
0.0581861
0.0268242
0.0234576
0.0229844
0.0280036
0.0358438
0.0362952
0.0331323
0.0333757
0.0595935
0.0604432
0.060134
0.0474268
0.0458977
0.0413738
0.0396508
0.0404004
0.0405973
0.008423
0.00650951
0.0822903
0.0796083
0.080608
0.0811869
0.0846468
0.0862344
0.0822645
0.103784
0.118962
0.0869007
0.0890557
0.0534356
0.0524629
0.0525542
0.11131
0.10785
0.136515
0.0759325
0.0760035
0.0735802
0.0561773
0.0544896
0.0557386
0.0434321
0.0428178
0.0438108
0.0423296
0.0932828
0.0934514
0.0923131
0.0406267
0.0415979
0.042271
0.0402315
0.0392947
0.0275496
0.0298966
0.0296331
0.0457212
0.0476725
0.0469258
0.0464498
0.0429897
0.0410377
0.042393
0.0922544
0.0931647
0.0936489
0.0918985
0.0292625
0.047681
0.044311
0.0439462
0.0429954
0.0521345
0.0520963
0.0523498
0.0520238
0.0456977
0.0467454
0.0470139
0.045545
0.0472042
0.0468892
0.0486085
0.0115579
0.010193
0.0118832
0.0640766
0.0642802
0.0632198
0.0639218
0.06299
0.111881
0.111723
0.0746219
0.039056
0.0516164
0.0589451
0.0394139
0.0414441
0.040888
0.0400907
0.0520535
0.0520085
0.0853281
0.0875412
0.0840373
0.0446362
0.0452347
0.0458564
0.090745
0.0900022
0.0900682
0.0906183
0.0425435
0.0419994
0.0437033
0.0407523
0.0179063
0.0146725
0.0162488
0.0895833
0.0885885
0.0892355
0.0680454
0.0675483
0.0920143
0.0919483
0.0271149
0.024098
0.0247793
0.0321569
0.030867
0.0316939
0.0857634
0.0572579
0.0587202
0.0581219
0.0578654
0.039354
0.0423234
0.0640389
0.064064
0.0641739
0.0607206
0.0503168
0.0507012
0.050188
0.0636151
0.0639981
0.0633768
0.0401214
0.0412439
0.0401829
0.0410715
0.0334548
0.0341207
0.0411064
0.0429608
0.0432698
0.0626859
0.0628974
0.0619536
0.0857393
0.0853705
0.0849688
0.0348696
0.0365175
0.037298
0.0344784
0.00711823
0.0085041
0.0536632
0.0347038
0.0300243
0.032865
0.0899061
0.0893279
0.0923441
0.000865694
0.00860631
0.0564708
0.0571528
0.0574694
0.074908
0.0750681
0.0571267
0.0141446
0.0808233
0.0805426
0.0816683
0.0796265
0.11775
0.117215
0.119233
0.0464258
0.0445055
0.0456036
0.0687857
0.0693771
0.089121
0.086839
0.0874466
0.0886239
0.0542338
0.053269
0.0550713
0.0937391
0.093423
0.0944554
0.0927998
0.03033
0.0302994
0.0326977
0.030026
0.0576904
0.0594866
0.0575041
0.0578831
0.0589835
0.0179778
0.014492
0.0473651
0.0458475
0.0470362
0.0457976
0.0583686
0.0522827
0.052548
0.0869926
0.100898
0.100682
0.100146
0.101584
0.0437765
0.0435528
0.0445794
0.00972304
0.0100537
0.0494161
0.0502539
0.048821
0.0541458
0.0551151
0.0539888
0.0551514
0.0728015
0.0721163
0.0880346
0.0970913
0.0924313
0.0996826
0.0991135
0.0985152
0.0447797
0.0466346
0.0457832
0.0456682
0.0502487
0.0498019
0.0648812
0.0484318
0.0471944
0.048158
0.0475555
0.118794
0.117861
0.0330672
0.0323921
0.0544553
0.0553024
0.0553743
0.0543096
0.0674294
0.0667633
0.0670917
0.0671203
0.119652
0.0899456
0.0894965
0.0428964
0.0449433
0.0444534
0.0429371
0.0366551
0.038223
0.063064
0.107893
0.10644
0.109065
0.0587657
0.0577454
0.0583014
0.0582386
0.0348901
0.0384914
0.0361373
0.0238685
0.0211422
0.0452729
0.0474579
0.047219
0.0461181
0.0172569
0.0040606
0.0907481
0.0912157
0.0252557
0.0914136
0.090339
0.0408978
0.0978921
0.100387
0.0765233
0.0794586
0.0489769
0.0448788
0.0812632
0.0495686
0.0490625
0.0498681
0.0732777
0.0467873
0.0446905
0.0459978
0.0488653
0.0476708
0.0487492
0.0476743
0.123188
0.12441
0.0345081
0.037196
0.0375346
0.0382154
0.036444
0.0330151
0.0339539
0.0325375
0.0345415
0.138752
0.0922661
0.0905695
0.0923128
0.0903099
0.0525799
0.0347994
0.0304441
0.0331254
0.0326157
0.0370395
0.0368946
0.0386711
0.0353574
0.138001
0.138186
0.0596874
0.0604939
0.0608288
0.0121892
0.0108758
0.0321911
0.053619
0.052446
0.0524529
0.0535103
0.0593026
0.0600034
0.0111147
0.041865
0.0276266
0.0249752
0.0272365
0.0246701
0.0426631
0.0413246
0.0436136
0.000384557
0.0658916
0.0661777
0.0652558
0.108433
0.0985981
0.0711741
0.0489101
0.0576115
0.058723
0.0574734
0.0953407
0.0960315
0.05045
0.0519284
0.0507039
0.0564351
0.0428313
0.0437613
0.0419892
0.0595432
0.0602963
0.0593212
0.120514
0.11516
0.113505
0.113808
0.114925
0.0487131
0.0470831
0.0496859
0.0464172
0.000138884
0.0518676
0.0532437
0.0530735
0.0678266
0.0661237
0.0706801
0.0333985
0.00594867
0.0960272
0.0471989
0.0477911
0.0648707
0.0649948
0.0256502
0.0265188
0.0252025
0.103861
0.104755
0.103228
0.105313
0.108897
0.0587638
0.0597761
0.0595697
0.0589183
0.0842064
0.0832202
0.0582745
0.0573851
0.097234
0.0961579
0.096743
0.0965043
0.0277313
0.0300866
0.0284573
0.0346399
0.0349236
0.0339763
0.0355504
0.0478661
0.0467209
0.0465994
0.0475987
0.0230971
0.049431
0.0480402
0.0485745
0.0103513
0.0469145
0.0435756
0.045719
0.0444836
0.0319193
0.0343678
0.0319986
0.092118
0.0915764
0.092018
0.0802735
0.0802738
0.0349536
0.0358675
0.033052
0.0373633
0.0628467
0.06221
0.0628225
0.0621745
0.0609133
0.059933
0.0604431
0.0604128
0.0894213
0.0889901
0.0896333
0.0887431
0.00388991
0.00392095
0.00412577
0.0125206
0.0518965
0.0494855
0.043534
0.0420714
0.0426185
0.0430099
0.0402153
0.108911
0.108472
0.107757
0.109785
0.0720452
0.135778
0.134805
0.135081
0.135241
0.0495676
0.0505666
0.0496275
0.0129521
0.0330573
0.0351961
0.0703661
0.0708245
0.0700154
0.0899232
0.089777
0.0896959
0.000188037
0.037905
0.0372445
0.0368765
0.0643988
0.052051
0.0524208
0.0518741
0.0411979
0.0418072
0.0421277
0.0530363
0.0575856
0.0585887
0.0575733
0.0584911
0.000457636
0.0411893
0.0387347
0.0405759
0.0379771
0.0708031
0.0677729
0.0723875
0.0485413
0.0496551
0.0455575
0.0441667
0.0396597
0.0620016
0.0612118
0.0613411
0.0618409
0.114298
0.0439622
0.0448596
0.000671048
0.121428
0.121114
0.0876634
0.0874517
0.0869503
0.0881589
0.0576675
0.0526841
0.0565279
0.0545504
0.0371642
0.0387702
0.13328
0.0556127
0.0570839
0.0563304
0.056356
0.0467406
0.0472654
0.0436657
0.0449575
0.0313124
0.0282177
0.0397459
0.0412419
0.0403366
0.0407102
0.00114185
0.032413
0.0322954
0.0310854
0.0336567
0.0648655
0.0650553
0.0651032
0.0190582
0.016857
0.0517262
0.0515315
0.071744
0.0483481
0.0492338
0.13718
0.0746423
0.0870227
0.0862816
0.0873795
0.0858098
0.133056
0.138188
0.0253102
0.0102512
0.0100101
0.0195543
0.03029
0.00577461
0.0112718
0.0115613
0.0148363
0.0605478
0.0367287
0.1386
0.00958462
0.00995368
0.00574744
0.00511027
0.13859
0.138428
0.138451
0.138264
0.00897754
0.0446183
0.044047
0.122321
0.117854
0.127628
0.125532
0.076612
0.0798
0.0140833
0.00791572
0.000329143
0.0584626
0.00100167
0.0190921
0.000595566
0.00791604
0.00979096
0.130829
0.0809256
0.0308952
0.0225766
0.025058
0.000393003
0.139165
0.00501329
0.00492534
0.00581795
0.0586987
0.00472334
0.149162
0.14455
0.0073164
0.137974
0.000190987
0.0255842
0.0240254
0.0119048
0.0144554
0.0151892
0.120804
0.0597299
0.0224705
0.137286
0.137395
0.0314477
0.0248437
0.0226759
0.0526525
0.0869441
0.135778
0.13639
0.0237054
0.0226753
0.129594
0.00845173
0.00167403
0.000333992
0.120359
0.118648
0.00114162
0.00549352
0.0221592
0.000958094
0.000419626
0.00424317
0.121482
0.11487
0.118188
0.117893
0.00307075
0.0298744
0.00648811
0.000240803
0.0229589
0.114199
0.117983
0.0272171
0.00647743
0.00359342
0.00330243
0.130516
0.0412158
0.132095
0.129617
0.130963
0.167924
0.0151833
0.0725483
0.00421989
0.00524294
0.00097621
0.112758
0.00671303
0.0360637
0.012466
0.0264283
0.0247903
0.0246074
0.0346111
0.020905
0.0217276
0.0220107
0.0177726
0.0247981
0.0268939
0.00870285
0.00894693
0.00197823
0.00349657
0.0214823
0.0189061
0.0165111
0.00436659
0.0050319
0.0302783
0.0319921
0.0212443
0.020172
0.0211128
0.00220311
0.00620449
0.0149175
0.000986329
0.000346539
0.000530783
0.0168505
0.000661826
0.000857815
0.000346286
0.000525943
0.00858645
0.00114831
0.0431679
0.0184864
0.0316104
0.0268486
0.00566745
0.00706979
0.0341318
0.0330067
0.0717361
0.0190288
0.110841
0.0326647
0.0618375
0.000712647
0.00614271
0.132889
0.00428497
0.0973716
0.0800209
0.133086
0.132248
0.0311434
0.011028
0.138337
0.12322
0.124263
0.0161202
0.0481323
0.0475514
0.132055
0.00433247
0.00514569
0.00331505
0.00556674
0.00608778
0.00553345
0.00968644
0.00430717
0.129857
0.0336444
0.00462319
0.00607413
0.00562981
0.00746709
0.0285993
0.0279863
0.0476235
0.110568
0.00842027
0.000186362
0.13781
0.137669
0.0233007
0.0223364
0.02983
0.0286409
0.0188423
0.0796746
0.0239501
0.0087869
0.00141002
0.00783582
0.031871
0.0289058
0.0988005
0.0857194
0.00285899
0.00308515
0.134226
0.0393671
0.0282413
0.0279886
0.0284394
0.00654928
0.0522952
0.137964
0.0166286
0.0177601
0.0154209
0.136519
0.136859
0.0248297
0.0215475
0.00707038
0.0454367
0.0503515
0.0219748
0.0198377
0.00796593
0.00897607
0.135058
0.136274
0.0675452
0.150677
0.143861
0.138584
0.138408
0.0136796
0.112189
0.00760278
0.00492525
0.0431811
0.00802121
0.00646209
0.00675208
0.0148959
0.0993708
0.00866853
0.0097534
0.0237256
0.00535361
0.00565305
0.128764
0.00764428
0.0333133
0.00737846
0.0604309
0.136845
0.136936
0.00212899
0.114716
0.000846801
0.0198697
0.0565336
0.0575703
0.0479632
0.033269
0.0328256
0.0113274
0.0122321
0.0160397
0.0381172
0.0244937
0.228228
0.185012
0.00047906
0.0389861
0.0390784
0.0376682
0.0377065
0.00862938
0.00341204
0.0501028
0.0401716
0.0402006
0.0407945
0.0394658
0.0268905
0.0111251
0.115741
0.122026
0.12521
0.138027
0.138112
0.0250258
0.0347899
0.0248559
0.0262659
0.0275631
0.0992909
0.0927662
0.107231
0.0306367
0.0257305
0.025144
0.112535
0.0249516
0.0651133
0.0670072
0.0690632
0.0358291
0.0289613
0.0577825
0.0569748
0.10417
0.138418
0.11119
0.109016
0.130612
0.10823
0.0113058
0.0157698
0.0113638
0.119609
0.11812
0.12833
0.00821271
0.00946549
0.0642776
0.0372486
0.0353514
0.0219714
0.0200686
0.0469601
0.0471664
0.048424
0.0279971
0.0157835
0.0305331
0.0298648
0.0169966
0.0208105
0.136782
0.137171
0.136768
0.137167
0.0147039
0.0144333
0.115717
0.019121
0.0186713
0.0314377
0.0284885
0.0282158
0.0319665
0.0348326
0.0343488
0.137843
0.13616
0.135601
0.0974937
0.0815222
0.0482873
0.136311
0.01699
0.0151959
0.0118974
0.102334
0.275745
0.214162
0.240132
0.042254
0.0410348
0.0870609
0.0344965
0.0337158
0.0305239
0.00141254
0.21416
0.0116811
0.035357
0.0382717
0.0371405
0.0358472
0.00248181
0.136081
0.136638
0.0105729
0.0290465
0.117305
0.138859
0.138911
0.106527
0.105798
0.000284399
0.0309783
0.0571248
0.0447802
0.0457187
0.0458705
0.000398332
0.115117
0.116729
0.11352
0.137247
0.136863
0.0278964
0.0274532
0.0291007
0.0162704
0.0271253
0.0427976
0.0432658
0.0421786
0.094638
0.000686153
0.110504
0.107292
0.0168748
0.00219649
0.104668
0.109851
0.122142
0.118213
0.0413884
0.040858
0.0208818
0.133381
0.0347052
0.0337202
0.0355013
0.0352464
0.196735
0.186382
0.0372537
0.036285
0.0349886
0.00814809
0.0102799
0.0106426
0.0120344
0.0129905
0.0246752
0.0156316
0.0391421
0.0382974
0.0390113
0.117257
0.120046
0.00171583
0.0378483
0.0474841
0.0479863
0.0491504
0.0369421
0.0412105
0.0576304
0.138457
0.0126654
0.0389464
0.0423865
0.0412883
0.122637
0.122191
0.0134655
0.135161
0.0235086
0.00888241
0.052675
0.0540082
0.054673
0.0438567
0.0433314
0.0959996
0.10153
0.0310934
0.0295382
0.0212476
0.0223238
0.0285507
0.0255417
0.0166683
0.0133779
0.0157044
0.0316007
0.0410364
0.0202257
0.00301202
0.106783
0.0326804
0.0323638
0.0334936
0.0110715
0.0194531
0.124874
0.123757
0.0837926
0.084315
0.0835019
0.0155277
0.0455111
0.00629637
0.000953331
0.138799
0.0505195
0.0236235
0.0223164
0.0239777
0.0491711
0.0358938
0.000517577
0.140488
0.0424148
0.0748049
0.0196419
0.0255544
0.0661452
0.0299339
0.0286717
0.0103122
0.0560718
0.0352659
0.00448166
0.113541
0.10463
0.0987487
0.0995062
0.0966958
0.00147682
0.00374518
0.0373272
0.0116971
0.0502871
0.0544531
0.0441622
0.0444055
0.0343387
0.0349134
0.03895
0.0186084
0.0193485
0.112637
0.108527
0.138877
0.138811
0.0928924
0.0911727
0.00584799
0.0369625
0.0349215
0.0199368
0.0208858
0.0695355
0.0673397
0.00431284
0.0178799
0.0148089
0.0439401
0.0471368
0.120356
0.117737
0.0963544
0.138515
0.138399
0.033647
0.0329904
0.0432521
0.0425301
0.0232631
0.0211723
0.104916
0.0183896
0.0199125
0.0442356
0.0454719
0.0462604
0.0457153
0.0492536
0.0481773
0.0838583
0.0833915
0.0821312
0.0636035
0.0641408
0.064483
0.0420034
0.0423359
0.126614
0.134706
0.135304
0.0158031
0.00925638
0.12978
0.127376
0.043386
0.0429283
0.0443966
0.0441534
0.0611828
0.136289
0.144681
0.00201023
0.035424
0.036301
0.0399816
0.117541
0.0363811
0.139072
0.140609
0.0702385
0.034381
0.0358458
0.0927202
0.0939839
0.0900919
0.0890015
0.0963084
0.0948616
0.00760696
0.00655951
0.0603981
0.0579784
0.139267
0.13921
0.139361
0.116218
0.0398235
0.116758
0.0578215
0.0625533
0.0727347
0.0697897
0.0128656
0.0417347
0.0407198
0.106524
0.108008
0.0278403
0.119045
0.0265986
0.0166746
0.138426
0.138233
0.10297
0.062838
0.0615678
0.0617783
0.0622254
0.014061
0.0156182
0.11468
0.0347026
0.0361075
0.0436931
0.154661
0.1662
0.0466402
0.137936
0.137607
0.0247934
0.028089
0.138522
0.059267
0.0604046
0.0598948
0.0360476
0.0366575
0.0612347
0.0651829
0.0414717
0.0402297
0.134593
0.00361947
0.0479483
0.0484196
0.0470457
0.0466646
0.0345116
0.112487
0.108361
0.104618
0.0738646
0.0705423
0.0725179
0.121723
0.117167
0.112481
0.0694986
0.0706867
0.0701418
0.133404
0.134671
0.134176
0.0889517
0.0759878
0.047948
0.0487799
0.0134791
0.0122098
0.0138781
0.116343
0.10243
0.108804
0.113892
0.0422218
0.138805
0.130737
0.128689
0.015412
0.0171755
0.0460983
0.0472715
0.0918676
0.0909653
0.0900289
0.121934
0.124316
0.118001
0.0723045
0.0834454
0.0846589
0.123982
0.124821
0.125857
0.0428161
0.0412802
0.136915
0.137258
0.13744
0.0450477
0.0434108
0.0427345
0.129099
0.130127
0.0502254
0.0505959
0.00555735
0.0461181
0.0458464
0.040714
0.0408858
0.0182033
0.0195328
0.0390655
0.0403973
0.04014
0.0714245
0.202138
0.256477
0.0294638
0.00308031
0.0680709
0.000782982
0.0874182
0.0883662
0.0391549
0.0134872
0.133106
0.13809
0.138166
0.12286
0.123883
0.0342613
0.0336102
0.138552
0.0764965
0.0761693
0.00492807
0.136371
0.137316
0.137707
0.0634277
0.0626999
0.131983
0.107354
0.10531
0.126944
0.12313
0.131366
0.131506
0.0370801
0.037371
0.0854482
0.0874412
0.0111897
0.0966986
0.101503
0.180948
0.153172
0.0978082
0.097799
0.118096
0.111687
0.0737174
0.0737688
0.154996
0.141746
0.141804
0.0321178
0.0314958
0.0320864
0.0458505
0.0458992
0.0146797
0.135043
0.14083
0.12754
0.052549
0.0482576
0.0769742
0.0767225
0.117015
0.116973
0.118607
0.0259832
0.0277252
0.0793504
0.0802134
0.101074
0.103094
0.0348534
0.0383432
0.0493697
0.0487743
0.0202892
0.0208463
0.0220634
0.107795
0.112253
0.106847
0.0261838
0.044808
0.0443406
0.0444994
0.0371239
0.0374742
0.0364402
0.0435172
0.0453145
0.151454
0.0378284
0.041293
0.0495532
0.0499913
0.0741799
0.074292
0.0752308
0.0798556
0.0774853
0.0753951
0.0492029
0.0481456
0.0409232
0.0420911
0.0384239
0.0399034
0.0405626
0.0407947
0.0427068
0.0116608
0.0273418
0.0286917
0.025829
0.0233553
0.0258983
0.000722076
0.13735
0.136501
0.13572
0.138235
0.138521