/*--------------------------------*- C++ -*----------------------------------*\
  =========                 |
  \\      /  F ield         | OpenFOAM: The Open Source CFD Toolbox
   \\    /   O peration     | Website:  https://openfoam.org
    \\  /    A nd           | Version:  6
     \\/     M anipulation  |
\*---------------------------------------------------------------------------*/
FoamFile
{
    version     2.0;
    format      ascii;
    class       volScalarField;
    location    "1600";
    object      p;
}
// * * * * * * * * * * * * * * * * * * * * * * * * * * * * * * * * * * * * * //

dimensions      [0 2 -2 0 0 0 0];

internalField   nonuniform List<scalar> 
29874
(
2.94307
0.175411
0.117382
-2.98457
0.182666
-4.53516
-1.17183
0.678793
2.51194
0.533117
-2.41421
-0.0381127
-2.01323
-0.279537
-2.16843
-4.36355
-2.95909
-3.2728
0.332985
-0.0542425
3.17578
-1.86302
1.16547
0.842347
3.78103
-0.695103
-2.1178
0.189977
0.45721
-2.70824
-2.55024
-3.69528
-0.602433
0.975044
2.81002
1.37448
2.78833
-1.79128
1.39305
-1.09211
0.948595
1.12075
1.37469
3.17152
-2.46377
1.71685
0.98683
-0.830016
-2.9292
4.18498
-0.368212
-2.48309
-4.1141
2.56721
-0.311788
-0.79893
-0.717201
0.805574
1.74301
-2.29341
-0.742941
2.1259
1.46339
6.10306
0.232524
0.935502
0.308312
1.13007
0.627912
0.558584
-2.04375
-1.56209
7.55606
0.472744
1.24603
-2.6392
-0.938752
-2.37895
4.52207
2.556
-3.37846
-0.253946
0.963682
-1.60334
14.4857
12.2819
0.427711
0.231062
-1.78265
-0.993924
18.181
1.11961
1.18402
-0.598462
0.155171
2.90774
0.538358
14.3002
19.5722
-0.279522
-0.362782
0.45576
0.899651
4.61808
6.32354
19.4118
17.5695
0.177184
0.688516
0.341124
17.8511
-1.61944
-1.7753
1.06597
0.970767
0.971083
1.97625
1.61132
24.3284
1.63056
1.30985
-3.48951
-0.0449883
-0.115659
-0.128645
3.29775
-1.24
1.25584
1.62118
3.81899
0.6791
2.95734
2.52819
1.10192
0.721959
1.49761
0.983569
-0.181578
-1.71295
3.48429
0.990192
1.52506
-0.576729
5.53816
0.88403
2.84661
-1.28387
2.01602
0.531056
1.81935
-2.165
-0.853173
-3.33775
-0.222579
-0.609745
1.10559
3.77132
-2.17761
-1.78954
-1.93973
-1.49067
4.34683
7.14766
0.856495
0.648919
0.961186
0.544676
3.32022
3.87405
1.02663
0.776286
0.632883
0.850811
15.7121
16.9904
0.77679
0.521665
23.8123
3.79543
3.88364
23.613
23.6211
-1.5128
3.27548
4.13773
-4.55702
0.386809
0.454856
-0.229072
0.881651
0.896376
-4.85812
3.36658
3.4926
3.22621
1.72523
1.4129
-0.508401
23.4698
23.5701
-1.62348
-5.57264
3.26463
2.76725
2.18433
2.69455
2.20134
-6.23484
2.11619
2.22959
2.02028
0.469998
5.02982
3.3391
-1.44091
1.41497
0.66219
0.483237
0.502858
0.714212
-0.977261
-4.65192
-0.382253
2.13877
0.756576
0.46055
-0.389045
-0.20418
-0.644117
0.738057
0.769429
0.713574
0.00606291
-0.523464
3.32007
3.45302
4.33665
-0.598419
0.388498
-0.612806
-1.80547
22.2619
21.5803
3.69027
2.70516
21.0093
21.2627
-10.523
2.52006
-7.22421
16.0441
1.94798
-9.50828
18.4276
0.228053
20.6354
17.2187
23.249
-7.58639
17.4035
-3.76969
18.4922
17.0282
-4.05649
-5.38182
-6.83827
-7.18134
3.07843
3.20625
24.6421
20.4883
20.8622
-6.76714
-8.20276
-0.426281
2.72174
-5.85946
22.2178
3.93891
-0.593886
-1.63443
0.0713063
0.552385
2.16673
1.89788
3.07568
1.06645
0.666881
20.3888
20.1503
4.04804
2.65318
2.78135
-8.99439
-8.92437
17.2099
17.2245
-4.69847
-8.77316
-8.59669
-8.13067
18.0171
3.08896
19.2729
2.88687
2.96933
20.2089
2.13458
-4.73843
23.1469
-9.20285
-9.11588
-5.11086
-5.57833
-5.27803
17.7241
17.7025
-4.55289
3.44168
3.50983
-6.03486
-10.8659
20.1416
21.3566
3.80695
3.82854
4.13809
-0.648746
17.4114
17.1965
3.38134
2.77856
17.5264
17.4409
-9.10698
-5.59766
2.81352
2.34658
2.35635
2.27947
21.0337
-4.96569
21.4136
21.081
21.1765
21.273
2.04596
2.3907
-9.93244
2.76131
1.92778
-3.13712
-9.86783
-9.14857
-9.17181
0.437325
20.6737
20.3157
8.4657
24.6656
-4.28087
20.8505
-6.84774
21.2521
21.3094
2.65074
2.72681
2.43682
6.00267
20.0931
20.3713
19.4774
20.0449
0.815273
0.670671
19.6744
18.5123
18.3434
18.731
18.0134
21.1966
21.5852
3.33575
3.13897
3.13921
2.94977
-2.73439
2.10625
2.00319
1.78053
-7.47784
-8.66976
21.9651
-6.24639
-5.48542
-9.82831
-9.33556
-9.90578
-9.95443
2.79029
-6.43271
-6.97063
-6.49186
4.51444
4.49326
4.00387
21.2648
20.959
20.8402
20.7646
15.6037
16.8684
16.0819
15.7272
1.66254
17.712
17.3754
19.0836
19.6072
21.0352
21.2787
21.5533
16.7056
17.7695
15.742
16.7272
17.7121
16.2802
-1.21334
-0.706002
-5.16714
-5.88734
-6.02659
-5.38218
17.6622
-4.13692
-3.81298
16.7347
17.1723
18.9389
18.2067
18.0751
17.6724
19.6534
19.6985
1.57892
4.24185
4.31786
4.57946
3.55638
19.8971
19.7061
20.6235
15.1672
14.6045
15.1627
-6.47417
-6.07774
-6.52918
-6.00317
-6.85618
-5.74787
-7.32856
-6.56886
17.8301
17.5381
17.9405
2.50347
1.07021
0.955428
1.01725
0.897937
0.620824
11.546
3.78604
3.65157
3.57175
19.3296
19.6225
18.794
-6.09759
19.6761
18.5657
18.89
18.9079
1.05584
21.1911
21.531
21.3608
20.775
-2.11695
24.6152
-4.95349
-2.44581
23.8082
-0.576955
-2.48193
0.529331
0.604603
0.618134
-2.81948
-0.903632
2.53511
2.2224
-0.332764
5.5188
6.07947
4.21065
4.56606
-2.10623
1.41415
1.52955
10.6123
0.957292
1.04089
22.7868
0.536913
-4.28621
23.9122
-0.314285
0.907387
-1.22306
10.4752
-1.77046
-1.68918
-1.92428
1.04604
0.547006
-2.00188
-2.16327
-2.15147
-2.03997
3.58853
3.69159
0.298599
0.393432
-0.480304
4.97222
2.76594
2.84814
-0.206885
-0.267691
24.0665
22.6016
-1.32473
-1.28453
-1.93449
-0.136687
0.163499
3.17944
-3.88487
0.70916
0.806784
-0.187462
-7.90099
-8.68012
-7.03227
9.1881
0.589455
-4.29668
-2.43186
-0.393549
-0.391974
-0.308104
-0.722988
22.7167
-3.05473
-2.74694
13.9842
13.1941
21.5741
-4.0794
-0.784945
-6.80076
-4.52568
-1.2684
-0.994299
1.14145
13.8233
-4.62504
-5.29639
7.45389
8.43833
-0.532294
2.62595
2.6162
-0.580733
0.586396
1.0285
0.849916
1.06348
-5.01946
-5.63085
17.6548
17.9975
2.31483
1.91505
3.8621
4.24807
24.136
0.169857
-4.10224
1.96641
2.12642
2.33439
0.533279
0.595678
1.49716
1.51128
1.39039
18.7066
19.172
18.7755
1.84454
1.88468
1.74431
2.06777
-5.71617
-5.16446
-4.94062
-0.44002
20.8194
3.83334
3.65438
3.37968
3.7193
18.1126
19.0969
9.2527
10.2308
3.18299
0.0120435
2.8035
2.35794
-9.34839
-10.0161
12.353
11.5648
10.7587
16.4127
15.805
1.71646
1.80472
1.97919
-2.48534
1.40075
1.07663
4.39277
5.16685
4.79748
-0.841261
-1.00409
6.0369
6.08599
6.71944
0.81918
-3.38457
-3.23458
-3.02729
24.6341
22.7826
0.131838
0.270347
0.567218
18.9345
19.1435
-0.918098
-1.37087
-0.564597
-24.293
-23.3782
6.45749
-10.1516
2.90393
18.9889
3.12746
21.6341
19.0726
1.39388
5.85393
5.21552
-11.7675
3.07665
2.98098
3.69026
3.83652
5.85693
-7.78103
-2.93618
17.6707
16.6395
3.26381
2.9173
-11.807
-11.8943
-0.144356
-12.6699
23.6625
22.4197
20.9082
21.1501
0.269525
-3.99443
-3.5583
13.0558
17.8724
-3.70299
22.9256
-2.15809
19.2055
5.95764
16.5196
16.7488
-0.725804
-8.86604
-11.2076
16.096
16.468
-0.0900841
-13.6111
1.70962
2.3319
2.85199
2.63579
-8.6022
-2.70734
2.59649
0.531832
-1.02195
-1.24176
-11.4156
-11.225
-3.75574
-3.40636
-15.1004
3.47693
3.28813
-18.5446
3.27285
-7.55708
-35.4969
3.1217
1.20847
-6.69398
-35.1983
-28.6483
3.57072
-16.1816
-19.2463
18.7814
5.86894
6.10432
-2.79653
18.2926
18.0928
3.06834
2.32066
14.7928
21.842
21.6185
-4.24128
5.29047
5.07968
-9.34158
-9.04374
-12.4839
-12.053
-3.35171
-0.375082
15.7384
15.6956
-6.16086
-1.26266
-4.94128
0.0992178
-0.126982
15.4197
14.3841
-8.07661
2.23724
-8.50001
-7.1909
3.41664
16.7467
16.9015
4.39584
-5.26413
-11.5322
8.62506
-13.6324
-10.7709
-10.8272
15.4466
15.487
-15.4236
-25.5528
-12.7638
14.6781
-18.2845
5.37152
3.07937
-4.62782
-5.7965
4.14745
18.187
14.9264
1.89616
-24.8065
-5.07407
-1.19692
1.87102
4.10765
4.34034
-10.4726
-10.3324
3.61748
16.1325
2.18641
-0.420014
-2.63591
6.45747
-0.30634
22.1687
19.0746
-11.4418
-7.43101
-2.87165
-2.04549
14.5654
13.6116
-0.984847
-1.75719
1.51807
-12.5965
-12.6413
-11.8667
-11.8564
0.453692
-0.678389
-0.870413
2.37542
-4.70809
-3.6711
-6.20236
8.10739
7.28968
6.72819
-2.62401
-3.34352
-13.7631
-14.033
4.1859
-1.92198
-1.78116
21.4296
21.708
21.4702
-10.9983
6.49602
4.2758
7.58244
5.3811
15.1997
15.1207
-10.0521
-4.07642
3.18293
-3.2244
-11.5289
-12.409
5.90408
-4.41227
-11.221
2.94053
-7.5768
-8.13913
-9.31646
-9.88921
-16.6982
14.4758
15.4756
15.8984
2.57916
-10.3802
2.62562
2.09664
5.65512
6.70877
-6.66249
-6.71452
-10.957
2.75891
2.97993
2.31513
2.18315
2.41714
-4.31654
12.916
-24.1451
0.107605
2.14672
2.33509
-7.36893
-7.47682
1.16169
16.9496
-11.1065
-12.0795
-11.7128
5.0782
19.1358
4.05011
1.47308
-22.671
15.4722
13.409
3.94092
3.84265
4.03686
1.06431
-2.19077
-20.401
-0.443054
0.445914
-6.55684
-11.1159
-10.953
-2.40289
-17.1596
-1.49734
-11.2582
-12.8441
17.027
16.6863
23.8862
-10.9732
-10.7253
-10.9325
22.0419
15.1022
14.887
3.18608
-10.9042
-9.76628
-10.5887
3.98563
-4.54234
5.89015
20.8396
-11.4729
3.09699
-0.486803
4.07378
3.66255
1.71365
1.87805
2.19899
-11.9511
20.8129
0.837351
1.39783
23.5936
2.46252
-3.75311
1.02031
0.928473
-11.5993
12.3366
-0.301969
-0.400433
17.8539
-4.52423
-7.02724
16.5047
-6.2764
-5.72856
1.28952
4.79308
17.3997
17.2535
17.7313
15.8421
2.97941
1.93653
0.575165
0.709213
-3.67361
-4.31893
-9.47132
-8.30935
-9.35479
16.4527
16.7102
18.9866
0.552069
0.831724
-11.5008
-11.6758
-8.20139
-8.52969
-5.06142
-4.51412
-6.11249
-4.47719
-3.88656
3.56447
3.09782
15.7501
16.3065
-11.0637
22.2793
17.6053
17.1573
-12.5502
-11.9337
-10.8825
-12.7723
4.20008
3.23842
3.44504
3.43771
3.33479
-8.36175
2.75808
3.13852
3.49849
-4.30686
-4.01925
-4.43614
-3.90906
2.19635
-12.4226
-11.6116
3.50195
17.5246
5.27659
5.89804
5.55335
17.2426
15.4288
15.4528
16.6501
16.9201
-0.752188
-0.297553
-0.99818
-2.86667
-2.29481
-2.52193
-2.30818
18.918
19.1768
-11.8327
-11.6768
-11.4871
-11.6521
-3.33591
-2.35602
-3.09912
3.02184
-3.25585
4.49506
15.5482
-9.87218
18.4407
-11.3498
16.8448
16.8243
3.24548
3.29212
3.32911
1.7733
1.62397
2.14049
21.372
1.81959
1.70676
1.91148
1.73777
1.80037
1.73036
1.52014
-4.83641
-4.35025
6.09172
23.4128
4.04515
-6.97738
4.87443
15.5144
-8.30818
3.65846
-18.4995
-1.83856
-1.75774
-14.9903
15.9442
15.8319
15.8837
2.47326
2.27816
2.7527
3.00221
2.52588
1.05701
0.913829
0.887927
15.9935
5.47318
4.98764
-10.155
-9.35803
1.90177
-10.9947
-11.7893
-11.1349
-2.71576
-3.3853
-2.67473
21.9542
-18.1711
23.0727
3.51852
2.83861
3.18928
1.53483
21.7953
17.589
17.7971
3.35403
17.3194
16.8062
16.4846
16.7691
0.487941
1.05698
14.0826
13.9499
-10.7601
-10.8585
-0.385423
-3.2
-8.07742
-7.09387
23.3777
4.46556
4.03497
4.56639
1.27178
-12.8281
-13.0957
-12.337
-6.24051
-9.76661
-9.64758
1.18556
0.760165
5.49168
3.40481
3.54769
3.28587
3.30333
3.32039
3.24712
21.7798
3.41785
2.80252
2.77544
2.49063
2.79572
23.5816
18.8641
-1.22714
-1.45509
3.18861
3.26642
3.28176
3.13085
3.14236
2.60421
15.7248
15.7686
3.34769
20.7257
5.0421
4.51071
-10.2232
-10.7216
-11.1868
20.2981
4.09063
3.7493
23.807
21.3221
21.1967
8.55142
8.30325
8.47773
-3.42489
-10.1329
-9.10549
3.98527
3.62142
16.4604
16.5706
16.8166
0.956545
0.400252
15.8368
22.6015
5.72711
-9.72372
-9.75742
-8.784
21.7909
21.8629
3.87856
3.9299
3.50169
3.15339
2.96713
3.1146
14.9728
23.8468
0.715247
20.1568
5.196
5.1974
-16.0964
-16.905
17.853
17.7643
1.34115
0.835802
0.488668
-0.136643
-0.103335
0.706792
-8.82823
-8.19314
-2.11343
22.0809
24.1434
-12.0146
16.7949
16.4166
-19.6043
-19.5147
15.6714
-11.3753
-12.2092
18.583
1.81832
2.09048
13.5146
13.818
-15.5572
-11.7132
21.4426
6.73636
6.87316
-1.24027
-1.47585
-9.31059
-9.1054
24.1538
24.1449
-11.255
4.50179
4.15263
24.3431
4.35196
4.80316
12.9906
-13.3757
-13.9771
-13.169
5.11103
3.20213
3.54994
3.16728
3.26264
3.4354
-11.2701
22.9498
2.98747
3.32541
3.38779
3.30311
1.63671
1.23078
2.86503
3.51891
0.0926836
-0.0404261
7.69939
3.07428
3.22527
21.0582
21.4404
-10.457
-10.9078
-11.07
-10.9137
16.9795
-11.4843
3.03304
3.26197
-1.76231
16.6419
16.5628
21.3411
21.7379
21.343
21.2851
3.15676
12.9117
12.6768
12.4616
-4.07053
-3.49857
-3.08775
-2.68732
16.0025
15.2286
16.1782
16.6308
-6.71382
-7.15181
-7.40149
22.9649
23.2382
18.5136
18.4039
15.4677
15.7383
15.6259
15.6163
-17.007
-12.0536
0.42905
0.295927
-5.40401
-9.39163
3.91868
4.23466
-10.0139
-9.80853
-9.75761
-8.80727
4.85142
4.49724
1.07925
1.03944
2.13034
2.26957
16.667
16.9554
16.5313
16.1439
3.37296
3.30849
3.14595
3.33782
-1.97211
21.3552
2.29743
2.56447
2.80603
2.64138
6.34738
-10.4054
-9.90683
-10.4727
-5.98116
-6.9392
-6.60584
-6.89127
15.797
15.3763
15.7425
-5.78047
4.38314
-9.22828
-7.66282
-9.62585
-9.69309
-9.08065
16.8382
16.6722
16.8568
-8.17037
-11.5952
-11.4868
-11.4734
-11.506
-9.97532
-9.48807
-9.9378
16.7061
16.438
16.2577
-2.59293
-2.03604
-0.804029
-1.48798
4.41762
4.35241
4.57393
1.98153
2.24357
1.74162
3.99056
3.86554
3.65138
3.39172
3.37485
-11.1799
-10.958
-11.1401
-11.2331
-11.5252
-9.61204
-8.77926
16.9198
16.6088
16.493
-4.08271
-4.73768
-5.29516
18.1555
-4.91754
-5.13276
-7.97505
-8.53905
19.8794
19.2415
14.9018
15.0679
17.9126
17.5999
2.03486
1.83896
-15.1486
-8.57919
-7.78985
-8.45781
-12.9116
-13.4302
-15.1099
-5.50019
-6.09388
-6.41251
-6.92582
-7.67024
2.97545
2.50181
3.12167
3.14709
-23.8824
-23.4737
-11.3415
-11.4902
-10.5269
-11.3931
-8.04808
0.822737
3.51174
-23.0754
14.4778
14.7741
3.41575
3.37075
3.23311
20.0218
20.0023
19.8661
-8.79393
-7.79299
2.37223
2.06755
2.33257
3.22117
3.02908
3.00881
3.05193
2.13909
2.52544
2.47882
-6.84945
-7.03981
16.4234
16.5727
16.752
2.54853
1.83192
3.27868
3.46385
3.73336
3.05698
-8.82302
-8.57086
-8.81643
-8.33469
-11.5353
16.9262
16.93
-0.439273
-1.17083
-1.52944
-0.961431
18.2779
18.0831
17.8226
18.1603
5.50417
5.65219
5.62772
-2.73447
-2.00662
-1.22556
-1.29659
-1.06246
-1.33195
-2.04433
16.2479
17.3372
16.6382
16.9609
19.1803
-6.71893
-7.07952
-6.53479
14.7075
14.4456
14.1725
16.5666
16.9811
-8.22115
-9.17066
-8.61775
-8.44606
-5.55447
-5.06401
2.68685
2.29009
2.59005
2.47395
3.2786
3.69129
2.99241
5.08271
4.65449
2.40369
2.73564
15.8872
16.1658
15.9971
0.985187
0.80398
2.19564
2.20453
2.19567
2.33782
15.0184
15.2918
15.3186
-7.88035
-8.22802
-6.92447
-8.06719
3.5952
3.61862
3.45086
-7.70627
-7.41778
-8.15608
17.8275
17.8526
16.1973
16.2352
15.9783
17.2311
16.9195
16.9445
16.8771
17.8683
17.9411
17.758
3.00485
3.19283
3.02012
2.76361
-13.7605
16.9153
16.6465
17.0351
16.8387
-11.8981
-11.8401
-11.8166
-11.6814
-6.02974
-5.51733
-6.40418
-6.8453
17.0922
17.1023
16.4842
22.952
22.9571
23.0156
0.497743
2.60023
2.1652
2.43032
13.7027
5.02511
4.74333
3.87355
-8.88801
-12.0125
-1.666
-10.4088
-10.5462
-10.4081
-9.93613
-12.0332
-11.9701
3.15614
3.14737
2.79353
16.9358
16.7321
16.6474
3.38875
3.27406
3.26588
3.66915
21.6879
21.7775
21.4574
21.7421
-5.83479
-5.61676
-5.41387
3.67324
3.51971
3.67478
5.28559
4.48699
4.54185
4.49074
-7.51317
-7.66292
-7.1867
-12.251
-12.3274
-12.2686
5.1723
15.4545
14.9255
14.7948
15.0699
-4.99184
-5.47014
2.94318
2.68581
3.80911
-0.193006
-11.4112
-11.3097
-10.8934
1.3817
2.24272
1.01615
-9.50529
-9.09726
-8.76945
-8.47986
-9.71257
-9.9626
-13.0143
-12.7999
-12.1878
1.0041
0.825369
-0.0313075
2.32442
2.25542
2.24651
-8.7153
-8.44178
-8.70305
-8.42396
-26.5792
-25.7022
-3.5077
-10.7883
17.8691
21.3031
3.64011
3.26216
3.68379
20.5213
-26.1211
-1.9534
-1.43551
-1.94932
7.79873
7.7613
-2.26926
22.0499
1.73882
1.60159
1.94892
1.76644
1.78157
1.42408
1.48224
-6.40748
-7.51723
-6.79296
1.92386
2.51984
2.99515
2.81339
2.55077
2.80845
-3.50906
-3.7997
-3.37171
3.3722
3.22292
3.13093
2.9651
-13.438
-12.8137
-10.505
-9.98258
-2.25799
-0.142771
-0.568086
-0.0811568
-0.142523
-6.42073
-6.03955
-10.3196
-9.96434
-10.4669
-10.4648
-2.10496
-12.0025
-11.9921
4.11315
3.22674
3.41729
3.58531
3.38105
17.7597
18.0755
17.9626
-5.28643
-5.05907
-11.0383
-11.3667
-11.246
-3.48079
-2.98839
-2.4663
-1.7108
2.65696
2.24213
-12.1012
-13.6409
-12.1405
3.33744
3.3061
3.47772
17.3539
16.8784
16.6636
17.102
16.6958
16.7675
1.57792
-5.04676
-5.83367
-5.9858
-6.00362
-4.13709
-4.48345
16.9808
17.3252
-3.81649
-2.87376
-2.42124
-2.54422
4.63009
3.99711
4.47809
4.57259
-2.40409
5.49769
5.41779
-9.34199
-9.79322
-9.75036
-9.8281
-10.1917
-10.4255
1.27137
2.74498
3.0698
2.90824
-1.02911
-1.66838
-1.63974
-1.62569
22.1515
17.529
18.1292
-15.6386
-16.8337
-9.92893
-9.23283
-9.74747
-8.99393
-21.3916
-4.53794
4.22158
4.47167
-18.5569
3.09591
2.93976
-9.19788
4.1132
4.20436
3.51729
3.5978
20.4892
20.7662
1.73376
-10.6571
-10.0487
-10.655
3.99279
-6.07833
-6.81297
-6.57575
-5.51909
-6.18051
-4.65243
-5.24671
2.34144
2.12022
17.8785
-10.4192
-10.0673
-9.54794
-10.4837
16.4311
15.9858
16.7542
16.8348
3.31886
2.89272
2.64995
3.09568
3.03965
20.5848
-5.13803
-4.8747
-5.02827
-4.15233
-7.6133
-8.32596
-8.42273
-8.11074
1.50813
1.4415
14.5749
14.2726
14.6186
-5.60627
-5.51809
-11.6445
-3.78247
-4.17208
-3.1623
-2.76951
-0.541664
-0.993331
21.6985
17.972
-6.51706
-6.00933
-6.40029
-6.67601
16.8712
17.0444
16.6896
21.4522
3.51337
3.69557
3.30023
1.29848
1.24543
3.15326
-5.93176
-1.76158
-0.440934
-1.00437
3.74649
3.46286
-4.32914
-3.51786
-4.66581
-13.3994
-11.785
-11.7475
-11.7606
-0.945161
0.0828109
-0.884266
2.93946
2.73181
3.03236
2.46356
2.71382
20.5363
20.9244
20.9197
21.2023
23.4217
-3.59804
-2.83916
-3.57852
2.13955
2.4811
2.75342
22.3164
23.5381
4.71526
-11.2424
-11.3588
0.761945
0.895326
-10.7239
-10.8229
-10.5122
3.2258
3.24778
3.41643
3.30882
2.46035
-1.03721
-0.686576
0.0460464
0.093048
2.16557
1.85204
14.8731
15.0919
3.57299
3.6396
3.67511
3.52834
-13.4985
-12.4911
-13.5522
-11.5325
-11.3509
-11.4688
-10.7182
-8.48419
-7.73541
-8.69291
-8.90008
-15.162
-11.7822
-11.8067
-11.6515
19.545
20.8858
20.9899
20.3281
20.6518
-9.1421
-9.2707
-8.75354
4.21419
4.07013
4.24755
1.50588
1.55091
-2.54591
-3.28236
-2.97985
-3.73748
1.20449
0.62074
2.11809
1.71723
-0.554238
-1.23392
-0.599275
-0.481908
3.01374
3.09467
3.24108
2.8263
-4.39916
-4.55868
-4.3762
-20.9005
17.4717
17.7157
-6.98288
-7.72991
-7.60977
-7.22142
-9.42109
1.50532
0.940971
1.73022
1.41284
6.15413
4.94129
5.73686
5.285
4.85983
-11.0502
-11.1197
-10.6412
-19.2499
20.3976
20.4387
3.84312
3.85096
3.38162
4.90185
5.09578
4.85028
24.7311
-12.1774
-12.7023
-12.7767
2.1127
-11.7785
-11.9008
-11.8686
18.4115
18.3108
18.1799
-11.9097
-1.80567
-1.1685
-0.575909
-0.113404
22.7383
-11.1206
-10.9721
-10.0304
-11.6662
3.50502
3.3334
3.39604
16.9757
16.9251
-10.7245
-10.7057
21.7047
0.854846
0.0256473
0.990397
1.58987
-8.81072
-8.1658
-7.95766
17.3699
1.48971
1.51096
2.85466
2.97405
2.58681
2.80706
19.763
20.2497
20.0486
20.5144
17.3871
16.4126
-7.67066
-2.60874
-1.87939
-2.22186
-2.32228
17.1584
17.4545
16.9209
16.8749
-6.17123
-6.25532
-8.64292
-8.03006
-8.52691
-8.64851
7.19586
-7.41363
-7.79611
-7.66798
-8.04916
2.49774
3.26587
3.36777
-8.72508
-8.2479
15.7867
15.624
3.33379
17.045
17.0818
0.578669
4.75335
2.20053
2.22679
2.49362
2.32716
-5.78719
0.17246
-17.6032
24.0143
24.0214
20.1691
-16.0756
24.1102
24.0251
23.9962
-20.2047
-0.275006
-14.4976
-0.110592
23.9086
22.8416
23.4618
23.6517
-1.84094
-0.0508472
-0.0258953
0.0429048
24.2318
-4.79284
-4.1523
6.27029
7.15353
-4.07209
-4.56071
-1.12497
-0.0738717
20.4675
24.2352
23.8569
-0.495414
22.4742
23.0763
23.4912
22.8628
20.9464
6.7846
1.75028
-16.175
18.3073
20.6917
23.6528
0.392447
24.0392
24.0232
24.0153
-1.87094
23.8995
-4.19595
-4.6255
23.6878
-4.15588
23.7912
-12.1537
-12.6326
22.1178
20.1907
21.1931
0.957532
-2.82217
22.0446
0.973996
0.753599
-16.2081
20.6661
21.0851
0.451114
-0.489362
0.563495
0.797194
-19.1152
-19.6362
7.33308
-25.8286
24.4541
24.5991
0.461281
0.229996
23.7372
22.5627
-19.3
22.2505
23.7915
21.9512
9.81369
11.4021
10.691
-6.90535
21.976
4.4225
24.3941
24.7153
22.2111
8.45805
7.79482
19.7143
24.4003
23.1285
23.191
0.826512
-8.39229
5.86148
6.78982
6.16481
-3.61143
20.4654
-1.53977
24.5177
24.4522
24.5321
7.00592
20.4333
22.1517
20.6142
18.4964
18.4419
18.2215
22.1889
23.2899
23.2364
22.8622
23.2586
23.039
18.8223
24.1363
24.1353
19.9335
18.976
20.6578
23.1016
23.5163
23.5255
23.4598
16.6633
16.729
22.7426
22.916
22.9764
24.5521
-27.5883
23.6852
21.1181
24.676
24.7099
23.1869
23.5382
23.3944
23.8674
23.8251
22.208
22.7984
1.68812
-21.5905
-11.1345
22.888
-27.605
-26.5206
-13.1474
22.1591
2.88284
21.5105
-0.646095
22.3028
4.16227
23.146
24.3107
1.36632
24.5365
0.363264
0.0602952
1.89266
2.17371
19.9824
23.9616
-2.75749
0.769075
1.04471
21.8436
-12.1973
-12.2843
2.66866
23.9405
20.8069
24.596
24.433
24.4014
24.3907
24.0822
23.6384
3.46929
22.4112
23.6377
23.5817
20.8416
20.7128
22.7374
22.7484
-2.76715
11.1063
24.2708
24.6329
1.60219
1.63155
22.5414
22.4818
21.0951
21.1298
18.6313
1.37362
-14.8328
20.3301
21.0127
20.2806
-1.07601
-0.986871
-0.653324
-0.153791
23.199
23.0274
1.94145
-13.1278
20.6361
18.1325
17.7524
23.3988
-1.34335
0.214373
20.3417
20.4425
21.8443
-2.99812
-2.81105
17.7349
17.8279
23.1534
-5.8079
-6.97182
17.2699
17.4287
19.7762
19.854
2.11699
1.81517
-0.43774
-3.50423
-4.02651
0.426416
0.365953
21.9404
-0.763246
22.8847
17.7509
-3.0027
22.5503
18.5589
18.8512
-22.6296
-0.445825
21.6976
21.8402
21.0455
22.1687
22.2015
7.18269
22.4821
22.3656
22.8399
-1.01555
2.36935
2.25905
23.5559
4.36747
22.8959
-20.822
-2.45848
-1.91732
0.0604635
22.1862
22.2531
21.0656
-23.8961
19.8957
18.681
22.0814
-3.4246
-3.36141
22.3594
21.8219
21.8942
21.9492
22.0027
-25.3971
24.3029
-5.62117
21.824
18.5504
18.4318
18.6595
22.8274
22.1147
-1.12001
7.36743
6.79708
0.0477811
0.132227
-18.077
22.1692
-18.1684
18.747
18.7159
7.994
8.746
7.82144
-3.79897
-3.53269
-18.084
-0.422203
18.938
1.26432
1.37322
1.49871
19.0171
22.3228
-1.84439
-2.43239
-0.298896
-2.12907
0.702141
0.27915
1.6952
-3.93611
19.3522
-8.56532
-6.94496
1.31225
0.954748
2.29435
22.5219
22.3297
-0.673534
-13.6821
22.0951
18.0575
18.2989
17.4868
17.2702
17.2009
-10.5949
23.5115
22.6032
22.6272
18.7516
20.4353
1.79429
1.70633
2.16741
1.86406
23.5504
23.5233
-2.73186
20.6157
20.5693
19.9674
19.9132
19.4825
20.9685
20.836
20.57
0.998398
1.1041
1.26669
4.60561
1.79316
0.570362
3.47188
-6.55505
-6.33338
23.821
9.36371
-4.88974
-3.89287
-4.28586
-10.9058
-10.5626
3.41725
19.5994
19.1102
19.1238
24.5346
-0.034534
21.3681
-10.3687
-10.6307
-10.7097
-10.4818
24.2207
3.07632
2.81189
24.0594
18.0644
-5.01676
0.66051
0.763642
-0.531992
-0.455447
24.6648
17.9695
-5.99721
-6.82886
-6.53392
-7.36664
24.3876
-1.99265
-2.68527
-2.0521
0.697912
0.663419
-3.01608
19.0578
18.9227
-0.735212
19.7252
-8.54237
-8.29782
-8.74492
0.484811
23.0543
-0.850295
-0.414157
23.4422
23.6012
2.00857
1.64908
7.87475
9.1409
17.5614
17.5418
23.3104
-7.71597
18.2957
18.2312
18.0085
18.0793
0.674978
-1.26875
-9.46853
-9.92493
-10.4639
23.8781
23.8762
-5.77844
-5.97693
-5.91834
-10.0699
-8.00159
-12.7838
-13.1907
17.6876
-4.79684
-4.53914
24.072
16.956
17.3829
17.2898
16.8967
18.4554
18.5785
-1.61616
-2.56151
23.2456
-4.34856
-4.84608
-5.10559
1.6214
1.06017
23.0502
0.666056
21.8917
22.6715
-3.78114
-3.71598
-3.07932
-8.47553
-7.98824
14.9028
14.239
19.0646
18.8255
17.9126
18.5365
18.4307
18.9348
19.3988
19.208
18.9809
19.0774
17.3628
21.3972
22.6778
10.8937
-12.4038
-12.562
-12.1986
23.6171
21.492
3.54773
3.27608
2.02551
2.12124
1.9153
20.4832
-10.9845
-3.62237
23.7767
-0.0407056
-4.9498
16.8652
16.506
16.4912
-0.751651
22.2004
24.7043
-6.45604
-3.35198
-0.583363
19.3397
19.4778
0.798076
-13.528
-13.9858
22.1853
-5.15257
-10.0363
23.0271
-0.917113
-1.54253
3.34123
3.43184
-0.630486
20.6203
-16.8034
18.4155
21.6717
20.4077
20.0127
0.575112
0.237171
19.0289
19.0737
18.7376
23.2758
23.2508
0.207354
-0.504323
0.922636
0.951411
3.62366
3.37118
24.4222
17.4283
17.5843
23.1358
23.1041
1.8459
1.7226
-5.01793
-3.15096
-3.07687
-0.220302
-0.586588
0.766267
0.585016
12.5762
0.796889
0.799032
-10.262
-10.062
17.3703
17.4376
-6.68759
-6.26981
0.429615
-18.0516
-17.376
17.8064
17.6064
17.5131
17.4553
-6.09157
-6.45259
2.08944
1.97142
1.83241
1.52898
2.13725
2.39107
21.5276
21.573
1.42343
1.66303
1.53683
22.4031
21.426
6.54126
7.49811
21.1815
17.2598
17.2267
17.111
0.201885
-6.71257
-5.61324
23.5844
19.1935
19.0582
-10.2118
0.649806
22.1466
-1.59461
-1.47881
-3.76404
21.6803
21.8651
4.17939
4.29323
4.67403
4.68411
3.18407
3.10957
-3.29095
-3.34918
-0.13999
-0.356749
0.650483
0.612041
0.641914
4.69655
-8.31618
-1.96696
16.8628
17.1049
15.6165
16.5974
18.0875
18.4063
18.4079
3.21956
3.12864
18.5395
-3.88252
-13.7243
20.0813
1.17397
1.26211
5.70578
0.836386
-0.315369
0.348037
0.533362
16.6756
16.8905
-0.717004
-10.669
-10.0766
17.5892
2.72066
2.08848
-6.12696
0.589372
0.640065
17.3063
-13.3109
0.43151
-1.51757
-0.416999
-0.236266
18.2743
18.1499
19.5118
18.9416
18.0077
18.4336
4.50325
23.21
17.0119
17.0906
17.0973
-6.94087
22.0353
-7.7527
-8.2356
-10.2303
1.65804
1.5298
1.81132
3.19817
-5.51909
-6.34474
2.50159
2.99344
2.76701
1.56124
1.28945
1.24223
0.0567511
-0.0591591
17.196
17.1158
21.3256
21.4684
21.3515
0.989227
0.908992
1.42755
1.51562
-13.0094
-0.690157
5.38966
6.36224
-5.90484
-6.01228
-9.21628
-9.66276
2.96313
2.91606
2.83513
8.85461
8.16847
9.52234
-0.268041
-0.316427
-0.133924
1.46402
1.76696
1.48389
16.2947
17.0355
2.50407
2.37414
2.11608
-10.4969
-10.167
-10.5309
1.47647
1.39449
-10.9946
-11.2368
-5.23296
-7.34993
-7.29468
17.7113
17.6556
-18.218
-17.5879
17.69
17.3781
17.3034
3.0015
-2.85191
-0.317642
16.712
23.9517
0.31918
23.2351
2.5974
2.67323
-9.83674
21.9943
2.70746
1.36841
1.24079
2.93116
2.87419
16.9358
17.1037
0.647897
5.22228
5.07818
-5.08407
4.2653
4.01661
3.75624
0.16157
-0.235339
6.02545
3.44972
3.45232
5.1735
5.5051
0.981101
1.2862
18.7346
18.685
2.75441
3.01934
-24.119
3.80599
3.985
-4.29008
-5.42772
3.26218
3.23609
5.42698
5.73747
4.11682
3.9952
-2.29747
-2.47186
-2.6693
18.4621
18.6368
18.7431
17.4615
17.6127
21.6308
-1.51259
-1.40791
8.07202
-5.77208
-5.87719
1.22226
1.00452
-5.25792
-4.19077
-5.34003
-8.18395
-8.5731
1.37856
1.51594
-0.361152
-0.119525
17.8378
17.0476
-10.5558
-10.2687
-8.16478
-8.48073
-8.67124
-7.6252
-7.12735
-8.62334
21.2974
-5.11454
-4.84602
-4.9436
18.5637
18.5818
18.9688
16.3384
15.915
-0.705241
20.0361
19.9884
16.8568
16.7833
0.852018
1.01997
1.10778
3.373
2.91532
2.88865
16.7043
16.8959
21.6354
21.4553
18.5265
18.1167
18.1412
-3.22436
-3.77148
-6.48345
-14.4588
-14.16
20.3607
20.328
20.6432
23.8281
3.96795
4.42424
4.91467
-0.320491
-0.276058
3.46212
17.8422
18.4542
18.0054
18.5557
17.7062
16.8772
17.5732
18.1721
1.16242
1.13799
-5.75236
-5.1798
-5.66442
-3.27306
-2.99799
-22.0883
-2.31154
-2.53264
-9.12662
-1.92123
20.4876
20.5044
-3.91287
-3.53856
-3.53999
1.31805
1.25581
1.07509
1.09453
0.664001
19.3514
2.05489
2.48746
-0.194562
-0.0645442
-0.180738
-14.7154
-14.1916
-12.6504
23.2593
23.1137
-16.0221
-15.454
0.534712
1.16607
20.9669
21.0617
20.4735
20.998
-0.811062
-0.779029
-3.85497
-4.32479
-0.0784309
-0.342249
-0.617615
17.2373
17.2603
15.8603
0.775562
0.704257
0.737754
-2.9624
-4.64282
-4.47432
-5.30929
0.910114
1.86568
2.54579
2.06705
0.90498
0.812345
0.739396
3.93033
-0.955727
-0.7065
20.1383
8.07267
0.597408
19.9667
19.4878
-13.9844
21.5428
1.14543
-11.9065
-10.365
-8.28785
-11.6007
11.1414
7.21769
-1.8117
5.988
-4.61133
-1.67484
9.69625
5.06662
-17.2552
8.42277
4.29187
-9.58796
5.99934
12.3918
11.7382
-7.77722
7.16678
5.26536
9.82835
-8.81232
-15.8176
10.3059
-12.159
11.7284
6.57528
2.70464
-6.95601
-13.2115
11.0057
12.8233
6.49483
6.48502
6.45889
14.6882
9.58028
-0.873598
-1.75909
-1.91302
-21.5466
10.3962
11.9927
11.5439
2.09783
2.96083
2.52515
3.31142
4.85334
10.0252
-14.2778
-14.5532
-7.50682
7.05406
-12.3298
1.58791
10.9977
-1.84098
-6.76226
11.0355
2.02667
-2.40124
-7.9624
11.426
12.2978
-30.5396
10.8917
-6.65425
-0.0327086
15.1948
6.81633
-9.89512
21.1929
21.6055
-11.2337
-11.9565
6.67974
7.53718
7.54054
-7.00861
-0.233328
5.15035
2.29053
12.7659
9.5809
12.8649
-4.67148
-4.77996
10.3713
9.96692
10.6524
-19.3485
13.4089
13.2843
-4.68728
-4.94931
2.85492
5.28217
7.22743
7.74561
-13.5443
-14.7577
9.82788
10.5859
13.1386
13.442
-0.0783428
0.954526
-15.4838
-16.3966
-0.296666
0.599901
-14.4891
-9.11268
-10.2379
8.22858
7.85356
-12.9279
9.57905
8.76007
4.50606
4.88913
5.69579
6.03247
-13.3466
11.1942
8.55018
-1.12365
1.79354
-12.952
7.93255
-15.1232
-1.67086
14.8324
-1.97255
1.91272
10.9168
6.43627
-0.213415
0.482845
-11.905
-2.6094
13.4813
2.11679
1.20233
-1.40164
5.47283
-0.476551
-1.41981
8.01
8.88821
8.61795
6.63295
16.4518
-3.48945
13.8378
11.3948
11.9071
1.7557
0.974435
15.8566
16.0429
4.73435
-20.0337
-0.457844
0.369445
-10.8786
-11.0107
9.9172
9.90853
-8.816
-9.34834
-10.335
13.8864
14.1535
8.78613
-28.7593
9.24769
10.6019
10.7673
-16.6497
-3.77427
6.79727
-17.7736
5.40584
-21.9703
-4.6646
-3.40813
2.76948
2.40079
-14.5704
-1.36424
5.621
2.52504
1.94862
1.08511
1.79865
9.93213
12.864
13.0893
15.9636
-2.18963
-2.99557
-12.8198
10.1398
5.4419
-15.2441
7.37494
7.3639
7.79338
1.23197
1.82846
10.6436
5.90479
6.07916
2.68168
2.93148
10.4589
9.66924
3.02129
3.78331
-4.89015
11.3585
10.8909
-14.6132
2.09556
2.20808
1.87513
2.308
2.48154
2.37098
-12.9905
-2.67391
1.20551
2.38224
3.21716
5.16076
2.53159
2.19209
12.5446
12.2419
3.13162
-11.0227
12.2483
-15.011
-0.994016
-0.333671
12.3392
12.1142
9.58311
9.05686
-12.5028
6.29404
-4.73429
-4.67745
7.79516
8.535
5.43045
-0.399283
-0.097834
0.465946
13.3874
14.2367
8.74192
9.12017
10.1908
10.7483
10.554
10.7272
5.06974
4.36553
-12.9507
-13.1428
-1.01383
-0.785303
-1.52136
-1.7102
21.1928
21.1625
21.4171
10.9044
10.582
10.5345
5.55194
5.33216
11.1699
11.2261
11.2876
3.22269
2.2744
14.2285
13.3561
11.0182
10.856
11.3363
11.6342
-11.7803
15.1612
15.2901
-0.625699
-1.79445
9.25019
8.99775
3.66121
4.26409
2.27351
2.98055
9.45964
6.3629
0.85667
-7.15824
-7.60208
-12.9123
1.84507
1.49585
2.17642
2.96746
8.36181
-9.58491
-10.4321
-9.4313
-1.94556
-0.186153
0.780539
15.2029
15.8598
3.23221
2.63094
11.6554
11.9171
-3.18409
-3.45908
13.8157
14.0258
2.32315
3.04234
9.96232
10.178
10.4043
10.1279
8.75528
8.95631
-3.75563
-2.803
11.2992
11.121
-16.2016
-15.0494
22.0315
8.9414
9.61542
9.82046
-8.73194
-9.4441
-1.79881
-1.62424
-4.81443
5.38129
5.38952
2.79113
2.21952
11.1937
11.3714
4.71727
-25.3252
-14.9408
5.82028
8.31839
11.8428
9.75627
-1.1356
4.34316
3.78211
9.51864
10.1748
13.9859
14.5409
14.0167
10.9839
10.4472
-12.8239
-4.08124
10.5287
10.7375
10.4699
10.938
3.67737
3.4535
3.16406
3.26686
1.79511
3.99953
3.17933
6.32125
5.39949
5.60486