/*--------------------------------*- C++ -*----------------------------------*\
  =========                 |
  \\      /  F ield         | OpenFOAM: The Open Source CFD Toolbox
   \\    /   O peration     | Website:  https://openfoam.org
    \\  /    A nd           | Version:  6
     \\/     M anipulation  |
\*---------------------------------------------------------------------------*/
FoamFile
{
    version     2.0;
    format      ascii;
    class       surfaceScalarField;
    location    "1600";
    object      phi;
}
// * * * * * * * * * * * * * * * * * * * * * * * * * * * * * * * * * * * * * //

dimensions      [0 3 -1 0 0 0 0];

internalField   nonuniform List<scalar> 
44596
(
1.53631
-2.16238
0.626061
1.53631
1.44643
-1.44643
1.93757
-0.491136
-0.0936994
-2.14617
2.09922
-0.56291
1.3096
-1.3096
0.215907
1.8168
-2.21225
0.765818
-0.267228
2.30057
-0.799581
-1.20594
0.799581
1.29964
-0.560099
-1.34308
0.560099
0.749502
-0.593582
-0.82573
0.82573
-1.17061
1.38652
1.19423
0.637067
-1.8313
0.0431335
1.50309
-1.54623
1.42594
-1.42594
-0.146997
-1.67445
1.82144
1.54801
-0.0870843
-1.46093
1.1239
-1.1239
-1.10394
1.10394
1.12309
-1.12309
0.238679
1.24421
-1.48288
1.37188
-1.37188
1.46779
0.0802256
-1.31533
1.31533
0.267105
1.34935
-1.61646
-1.58206
1.58206
0.600967
0.58218
-1.18315
1.94134
-0.515397
-1.2536
-0.217652
1.47125
-1.42872
1.42872
0.706558
1.29325
-0.79335
1.49991
1.47158
-1.7669
0.295315
-1.62239
1.62239
1.0551
-0.816426
1.24545
-1.416
0.170548
0.961427
-0.961427
1.20095
-1.34795
-2.30937
0.830821
-0.830821
1.00801
-1.09509
1.83883
-1.92592
-1.58667
-0.613683
-0.789752
-0.796914
-0.897804
0.897804
-1.03976
1.0829
1.9807
0.0634417
1.48729
-1.55074
-1.53502
0.135092
1.39993
-1.55074
-0.458153
0.00814666
-1.43687
0.113394
0.211381
0.259673
-1.81041
-1.50722
1.81041
0.529231
-1.20726
1.99702
-1.43687
-0.943029
-0.47297
-1.55884
1.55884
0.897059
-0.391437
-0.505622
-0.814179
0.415514
0.398665
0.70315
-0.113422
-0.589728
-0.00128232
-0.0919412
0.0932235
-0.059642
-0.0637433
0.123385
0.0613053
1.44179
0.853805
-0.7925
-0.00278063
-1.45815
-1.20535
1.20257
-0.0392593
-0.00355506
0.0428144
0.124496
1.06974
-0.793249
0.555088
0.238161
-1.66075
-0.0136918
-0.348865
0.927589
-0.578725
0.416741
0.59465
-1.01139
0.0481214
-0.881598
0.833477
0.0092473
0.0667285
-0.0759758
-0.0356931
0.00976719
0.0259259
0.0964165
-1.03187
0.935457
0.805316
0.636471
0.710404
-0.608811
-0.101593
1.24554
-0.142297
-1.10324
-0.163235
-1.09414
1.25737
1.53157
-1.69481
-0.0216293
-0.0140638
0.0050442
-0.0443035
-0.934219
-0.726535
-0.0371923
-0.897027
-1.0754
-0.00691832
0.0329126
-0.0259943
-1.30912
-0.149025
-0.441378
-0.867744
0.0106086
-0.803858
-0.803571
-0.679361
-0.608255
-0.325408
0.933663
-1.19833
0.980675
0.000728639
-0.000728641
-1.10215
1.25381
-0.151661
0.251357
0.904882
-1.15624
0.81981
0.0685687
-0.888378
0.0163382
0.911251
0.913397
0.897559
-0.480662
0.897403
-0.886545
-0.318804
-1.1313
-0.307418
1.43871
-1.19775
0.25983
0.937917
0.536048
-0.852754
0.316706
1.05607
0.943832
-0.744154
0.753917
-0.00976279
-0.882116
1.05266
0.848545
-0.211479
0.253602
-1.18845
0.934851
-0.979415
-1.02842
-0.283285
0.986435
-0.897373
-1.412
0.934565
0.308055
-1.24262
-0.00946509
-1.41648
1.14076
-0.20591
1.2225
0.758199
1.07594
0.923992
-0.631556
-1.29436
1.07293
0.171272
-1.10647
-0.880675
-1.85154
0.745072
-1.63695
-0.194353
1.15747
-0.734818
-0.422652
-0.102724
0.802211
-0.699487
-0.952381
0.0846376
0.886848
0.116315
-1.05934
-1.32055
0.419836
-0.912685
0.492849
0.822784
-0.611403
-1.52409
-0.805615
0.332645
0.351855
0.715405
-0.775961
0.0605553
0.808683
-0.695289
0.0484466
-0.0391993
0.0382463
-0.0451646
-0.534847
1.0277
-1.23286
0.698017
-0.00118794
0.00118795
0.865475
-0.87908
0.0136048
0.130657
0.000738712
-0.000738711
0.000738718
-1.10021
1.10021
0.861756
0.802243
-0.671586
0.757209
-1.2535
0.496295
-0.720254
0.570105
0.150149
-0.00984971
0.396339
0.457466
-0.566177
-0.237393
-1.55158
1.49406
0.0575221
0.208106
-1.09022
1.53157
0.94639
1.38817
-1.46978
0.0816073
0.00149386
-0.00149386
0.000755153
-1.00442
0.890998
-0.859366
1.16002
-0.300651
0.817434
1.4184
1.29473
-0.712548
-0.63852
-0.372872
0.656208
2.35321
-0.981328
-0.145663
-0.923317
0.230623
-0.64542
0.414796
0.0614756
0.80028
0.285675
-0.875402
1.04275
-0.062079
-1.18474
0.944731
-0.246713
-0.130669
0.79437
-0.11275
1.2366
-1.35867
1.35895
-0.000274492
-1.04189
-0.504334
-1.53303
-0.76721
0.38375
0.0475354
0.627853
-0.675388
1.20973
-0.15366
-0.148942
1.70515
-0.483498
-1.22165
-0.14639
0.757577
-0.405722
-0.627144
-0.22561
-1.4011
1.33795
1.96401
0.00401683
-0.00309746
-0.000919364
0.00146215
-0.00667725
0.0052151
-0.0281472
0.0283188
-0.000171557
0.041239
-0.0201945
-0.0210445
-0.00468713
-0.00481282
0.00949994
-0.00963955
0.00495242
-0.0569536
0.0123217
0.044632
-0.0181096
-0.105005
0.123114
-0.00548983
-0.00548343
0.0109733
-0.0644813
0.0488812
0.0156001
-0.112459
0.0732194
0.03924
0.0560373
-0.00789937
-0.0481379
0.00634578
-0.0054222
-0.00092358
-0.498066
0.323803
0.174263
0.0189505
0.00162087
-0.0205714
0.00695422
-0.00498223
-0.00197199
-0.00126802
0.00126802
0.00395216
-0.00944199
0.00746543
-0.00487277
-0.00259266
0.0212379
-0.0453582
0.0241203
-0.00767124
0.00572166
0.00194958
0.00373801
0.00321621
-0.0532513
0.00414662
0.0491046
0.0453737
-0.0473943
0.00202063
0.0114241
0.0145917
-0.0260158
0.0383681
-0.026944
-0.0551071
0.0107175
0.0443896
-0.0386635
0.0565385
-0.017875
0.00144611
-0.00144611
-0.00605815
-0.0068661
0.0129242
-0.010871
-0.0481152
0.0528899
-0.00477453
-0.00814183
-0.0555256
0.0636675
-0.0368297
0.00822143
0.0286083
0.00352474
0.0160339
-0.0195586
-0.00333297
-0.0170836
0.0204165
0.00264033
-0.00264032
0.0138532
-0.0386021
0.0247489
0.00466482
0.00670198
-0.0113668
0.0103335
-0.00178899
-0.00854455
-0.0108275
0.0857325
-0.074905
0.0653933
-0.0762208
0.0517704
0.0222567
-0.074027
0.0671492
-0.0153789
0.0072507
-0.00299698
-0.00425372
-0.00387855
0.0463618
-0.0424832
0.0615148
0.00919938
0.00975114
0.0189666
0.00598552
-0.0244596
0.0184741
-0.0198383
0.0196498
0.000188478
-0.00779994
-0.0120384
0.0565835
-0.0554409
-0.00114258
-0.0472263
-0.00891182
0.0561381
-0.00706521
0.00326405
0.00380116
0.00911157
-0.00681428
-0.00229729
-0.0111961
0.0360003
-0.0248042
-0.0470539
0.0389121
0.00898342
-0.00920309
0.00386345
-0.00681063
0.00294718
-0.0170445
-0.0380626
-0.000992078
-0.00461669
0.00560876
-0.0217087
0.0139088
0.0120099
0.0032957
-0.0153056
0.00597982
-0.0128459
-0.627077
0.301669
-0.0232006
0.0120045
-0.00279807
-0.0012442
0.00404228
0.0234343
-0.0232282
-0.000206126
0.00849269
0.0149416
-0.0119162
-0.0112843
0.00431481
-0.0162311
0.00733819
-0.0186225
0.00593706
-0.00775701
0.00181995
-0.00225645
-0.00386527
0.00612172
0.000558347
0.00970071
-0.0102591
0.0480439
-0.0373264
0.00938037
-0.0522175
0.027709
0.0245085
-0.0160577
0.0199195
-0.00386174
-0.0032625
0.0161867
0.0112989
-0.00906202
-0.00223693
0.0449535
-0.0355731
0.046803
-0.00184957
-0.0465695
0.0109964
0.0577894
-0.675754
0.617965
0.00526443
0.00384714
-0.00321911
-0.0038461
0.0632129
-0.341116
0.277903
0.172139
-0.502191
0.330052
-0.000424198
-0.00617521
0.00659941
-0.00321042
0.00628074
-0.00307032
0.0264789
-0.0179862
-0.0109151
0.0313718
-0.0204567
-0.0283274
0.0111184
0.017209
-0.0184065
0.0287799
-0.0103735
-0.0467339
0.0398984
-0.00625361
-0.00461735
-0.0174832
0.0248214
-0.00615626
0.00761841
-0.00514269
0.00676356
0.014382
-0.0348501
0.0492102
-0.0143601
-0.0550693
0.0202192
-0.002023
0.0210665
-0.0190435
0.00618179
-0.0192291
0.0130473
-0.0625426
-0.0499168
0.261983
-0.586082
0.324099
0.00142559
0.0520426
-0.0534682
0.0580091
0.0441432
-0.372111
-0.125954
-0.0118675
-0.00870387
0.00760747
0.0113297
-0.0189371
-0.14268
0.202495
-0.0598148
-0.00117873
0.00117873
0.0915386
-0.0343364
-0.0572023
-0.00556329
0.00849063
-0.00292734
-0.050509
-0.0281655
0.0786745
0.00855977
0.0058222
0.0115609
-0.00661966
-0.00494128
0.00680342
0.0128464
0.0129852
0.00258909
0.0102573
0.185177
0.118785
-0.303961
0.0197543
0.00613499
-0.0258893
0.00187494
-0.0137425
0.464286
0.124747
-0.589033
-0.748305
-0.133293
-0.00430592
-0.0215834
0.0366999
-0.00378726
0.0323939
0.0274654
-0.0222751
-0.00519029
0.0128885
-0.0388827
-0.0076552
0.00140158
-0.00857926
0.000924066
-0.386722
0.482738
-0.0960159
-0.506736
0.496973
0.0230514
0.0334871
0.0402604
0.0479028
0.0115475
-0.0594503
-0.0505326
0.0401592
-0.00132242
0.0410489
-0.000889748
-0.0072993
0.0494166
-0.0421173
-0.0545256
-0.00584928
0.00421657
0.00163271
-0.0770325
0.0265234
-0.00769433
0.053068
0.0109716
0.00761448
-0.0185861
-0.00894861
-0.0142796
-0.0066651
-0.63535
0.497027
0.138322
-0.0375956
0.0270793
0.0105163
0.000772518
-0.0251382
0.241509
0.236212
-0.477721
0.34054
-0.0990312
0.552918
-0.00805348
-0.00100854
0.00161726
0.00971241
-0.00643621
0.0307625
-0.0320448
0.0337188
-0.0286746
-0.0607195
0.328616
-0.155316
-0.1733
0.00495978
0.00504113
-0.0100009
-0.0060592
0.00909736
-0.00303816
-0.0062901
-0.0136845
0.0199745
0.0094059
-0.015696
-0.0116572
0.00522104
0.00111379
-0.012771
0.0112619
-0.00604087
0.0292239
0.0224136
-0.0516375
0.031934
-0.00135878
-0.0305752
-0.0113287
-0.0493907
0.0373021
0.000944167
0.0259734
0.00896624
-0.00139006
-0.00757618
0.00268385
0.00628239
-0.0247848
-0.0212656
0.0460504
0.0142685
0.0189202
-0.0331887
-0.00234543
0.00353595
-0.00674637
-0.00573748
-0.0475138
0.0463036
-0.0250657
0.00577965
-0.00824609
0.00246644
-0.0078525
0.00643218
0.00142033
-0.0261245
0.0120606
-0.00626947
0.0322429
0.0146178
-0.0169013
0.00228345
0.0205976
-0.0190525
0.923934
0.210365
0.591878
-0.440988
-0.186156
-0.0101076
-0.00679369
0.00520496
-0.0153125
0.00855159
-0.0153453
-0.0494906
0.0110808
0.0384098
0.000609388
-0.056751
0.0561416
0.0088277
0.0206844
-0.0295121
-0.0234194
-0.00976934
0.0405038
0.0089128
-0.0107725
-0.0366218
0.0297313
0.0075463
-0.00184175
-0.00570455
0.00626443
0.00128186
-0.00726609
0.00542435
0.0199071
-0.0163824
-0.530439
0.590994
-0.512315
0.593749
-0.0814341
-0.00426336
-0.00737541
0.0116388
0.0257509
-0.085393
0.0324524
-0.0185992
0.00430518
0.0282038
0.0121414
0.00845617
0.0172561
-0.00511471
-0.0146796
0.0231358
0.078082
-0.0682582
-0.00982377
0.00322711
-0.0196016
0.0163745
0.0207522
-0.00786379
0.0239794
0.324996
-0.337997
0.013
0.00215616
0.00940477
-0.00808617
-0.000493097
-0.00593
0.00891168
0.498176
0.946625
-1.4448
-0.000794303
0.000794297
-0.570322
-0.0680766
0.638398
-0.819453
1.31763
-0.00127352
8.55837e-05
0.46762
-0.409831
-1.06532
1.06532
0.130604
0.945338
-0.885515
0.654208
0.231306
-0.407366
-0.478148
1.239
-0.260476
-0.978523
0.110193
-0.0548679
-0.0553248
-0.528205
-0.107144
-0.103611
-0.424595
-0.836018
0.932434
0.185258
0.312658
-0.497916
0.370435
0.0437731
0.648156
-0.691929
0.482952
-0.439179
0.0643467
-0.0164438
0.602079
-0.621131
0.536653
0.0654258
0.136323
-0.110572
0.484255
-0.235732
-0.248523
0.196863
0.287392
0.00359927
-0.00389841
0.00029914
-1.01618
-0.144878
0.577098
-0.43222
-0.000567152
0.000567151
0.399842
-0.944672
0.54483
-0.554362
0.601897
-0.308794
0.594469
0.0811989
0.0551237
-0.607687
-0.219036
0.826723
-0.0560506
-0.021599
0.0776495
0.00829618
-0.157062
0.0089531
0.148109
0.644359
-0.700584
0.0928972
-0.327696
-0.372887
-0.692024
0.364328
-0.918523
0.046182
-0.996848
0.750134
-0.163371
-0.440268
-0.235486
-0.6377
0.412089
-0.130104
0.352634
-0.8983
0.506863
-0.610088
-0.288212
0.000589967
-0.000589969
0.00110033
-0.00383447
0.00273413
1.03557
-0.148722
-0.0114795
-0.671084
0.682564
0.944301
-0.617318
-0.326983
0.334212
0.219459
-0.700121
0.661467
-0.0877019
-0.573765
0.880799
0.738501
-0.314651
0.714493
0.0298436
0.0739868
0.0184612
-0.186591
0.227167
-0.0405761
0.219768
0.424591
-1.15283
1.15283
-0.490865
-0.20116
-0.758516
-0.273357
0.839061
-0.332199
0.0805457
0.27355
0.19407
-0.00392518
0.00227101
0.00165418
0.793308
-0.531325
0.302443
-0.0252127
-0.088956
-0.00852519
0.00259519
0.812471
-0.957349
-0.455424
2.01426
1.03863
-0.541968
0.3599
0.182068
-0.268418
-0.325438
-0.332622
0.65806
0.0364726
0.247239
-1.50074
0.861556
-0.614317
-0.0828413
-0.255274
0.338115
-0.269432
1.20165
-0.0590863
0.0420418
-0.0368297
-0.624439
-0.211579
1.07444
0.248674
-0.578855
0.330181
-0.829739
-0.581065
-0.801844
0.255184
-1.05703
-0.00965888
-0.0130275
0.0541217
0.0636655
-0.942745
0.711822
-0.000391896
0.000981863
1.2225
-0.682848
1.90535
0.225369
1.03828
-0.812912
0.93467
-0.925494
-0.0906837
-0.290518
-0.288337
0.643144
-0.0188438
0.00416419
-0.0165603
-0.0275758
0.0110155
0.111023
-0.647676
0.723142
-0.075466
0.298547
-0.60605
0.985702
-0.379651
-0.0289525
0.783519
1.04698
-1.19337
0.00623744
-0.630454
0.266949
-0.142465
-0.0035717
0.0267075
0.0434061
0.183761
-0.0671656
1.27098
0.211019
0.848325
0.0445884
-0.0535002
-0.0108525
0.0101532
-0.0991092
-0.0752398
-0.142405
-0.022751
-0.0619502
0.419042
-0.494508
0.510161
-0.0911195
0.349374
0.160787
0.422573
-1.34163
0.158275
0.0402358
-0.487361
-0.158059
-0.447125
0.577212
0.0407525
-0.446644
0.288585
-0.098158
-0.348486
-0.353432
1.13959
0.130142
0.82687
-0.696729
0.566395
-0.000556388
-0.000237921
0.0046996
-0.780689
-0.456886
-0.590179
0.0223709
1.39467
0.711822
-0.757956
-0.00781072
0.00937593
-0.00156521
0.00286564
-0.0106764
0.00138361
0.00470083
-0.00608444
-0.00576566
-0.00715856
0.0129242
-0.151199
0.264922
-0.113723
0.00517292
-0.00434503
-0.000827891
0.00746765
-0.00185803
-0.00560962
-0.00623403
0.00385154
0.00238249
-0.00455495
0.00404461
0.000510331
-0.014358
0.0143192
3.88478e-05
0.0115214
-0.00238793
-0.00913343
0.00268535
0.00883602
-0.017051
0.00524699
0.011804
0.00694697
-0.0026598
-0.00428717
0.00277895
0.00416802
-0.0133541
0.004897
0.00845707
0.00549874
-0.0188528
-0.0035283
-0.00440395
0.00793225
-0.00857293
-0.00160584
0.0101788
0.00201458
0.00803942
-0.010054
0.00444045
0.00222838
-0.00666882
0.00481064
-0.00798014
0.00316949
0.00858829
-0.00957081
0.000982516
0.00181855
0.00676974
-0.00791327
0.00527732
0.00263595
-0.00512152
-0.00279175
0.00245855
-0.00713727
0.00467873
-0.00160206
0.00994986
-0.00834779
-0.00230625
0.00414969
-0.00184344
-0.00327474
0.00198009
0.00129465
-0.0033954
-0.00290613
0.00630153
0.00486273
-0.00825812
-0.00292266
0.0101857
-0.00726309
-0.00752605
0.00225265
0.0052734
-0.00163949
-0.00588656
0.00295003
-0.00701293
0.0040629
0.00201716
0.00434347
-0.00636063
0.00756381
-0.00767312
0.000109314
0.00324825
-0.00276451
-0.000483744
0.00367545
0.00319639
-0.00687184
0.00372115
-0.0049678
0.00124665
-0.00649576
0.00296746
0.00756103
0.000523852
-0.00808489
0.00425907
0.00330196
0.00348483
0.00770408
-0.0111889
0.00851153
-0.00995207
0.00144054
0.0108448
-0.00117335
-0.00967144
-0.0092235
0.000454423
0.00876907
-0.0083749
-0.000775667
0.00915057
-0.00442658
0.00688513
0.00802411
-0.0116834
0.00365925
-0.0132372
-0.00112081
-0.00715146
-0.00608575
-0.0247263
0.0199132
0.00481314
-0.00719784
-0.333293
0.340491
-0.00893866
0.00452544
0.00441322
-0.00595124
0.00742723
-0.00147599
0.185049
-0.192247
-0.00474742
-0.0053828
0.0101302
-0.00968217
0.00163091
0.00805126
-0.00251682
-0.00716535
0.019974
-0.00551677
-0.0144572
-0.00776405
0.027738
0.00800649
-0.00231336
-0.00569314
0.00303431
0.00497218
-0.00713194
0.011268
-0.00413603
0.00552153
-0.00815464
0.00263311
0.00853625
-0.00575729
-0.00115809
0.0117918
-0.0106337
0.00472009
-0.00613713
0.00141704
0.00974393
-0.0129566
0.00321272
0.00869859
-0.00869859
0.00221753
0.015706
-0.0179235
-0.0103164
0.00554359
0.00477284
-0.00923001
0.00331068
0.00591933
0.00845499
-0.00845499
0.00812
-0.00812
0.000656328
0.00779689
-0.00845322
0.0287457
-0.0122615
-0.0164842
-0.00405365
-0.00615113
0.0102048
0.00631895
-0.00576691
-0.000552021
-0.0222902
0.00601331
0.0162769
0.0107491
-0.0330393
0.00360182
0.00477219
-0.00837401
0.00471984
0.00162594
-0.002611
-0.00465509
-0.00345918
0.0154691
-0.00418581
-0.00545075
0.00963655
0.00546235
-0.003288
-0.00217435
-0.00539581
-0.00195348
0.00734929
-0.0115291
0.00464859
0.00688055
-0.011248
0.00747466
0.00377335
-0.00440656
0.00708424
-0.00267768
0.000297939
-0.00470449
0.0127627
-0.0101307
-0.00263197
0.0101844
0.00146811
-0.0116525
-0.00871846
-0.00116457
0.00988303
-0.00512712
-0.00359134
-0.00169837
-0.00705515
0.00875352
0.00214142
-0.00691091
0.0047695
-0.000436325
0.00605765
-0.00562133
-0.000967613
0.00594779
-0.00498018
-0.00399282
-0.00417807
0.00817089
0.00909693
-0.00465216
-0.00444477
-0.0120904
-0.0025649
0.0146553
0.0125629
-0.00669347
-0.00586943
0.00535689
0.00652994
-0.0118868
-0.00697303
0.00703877
-6.57363e-05
-0.00624332
0.00692557
-0.000682249
-0.00761074
0.011828
-0.00421722
0.00723
-0.00018529
-0.00704471
0.0081376
0.000229981
-0.00836758
0.00960605
-0.00279755
-0.0068085
0.00170624
-0.0069807
0.00527445
0.00206288
-0.00715956
0.00509668
0.00580089
-0.00160829
0.00660954
-0.00500125
-0.00793367
0.000858555
0.00707512
-0.0184481
0.0265052
-0.0080571
0.00179732
-0.00540375
0.00360643
0.00320237
0.00491478
-0.00811716
-0.00694514
-0.00419825
0.0111434
0.00319007
-0.0101352
0.00608348
-0.000395557
-0.00568792
0.00827377
-0.00219029
0.0187423
0.0100034
0.00492145
0.00415791
-0.00907936
0.0107611
-0.0103947
-0.000366384
0.009984
-0.009984
0.00592828
0.00356134
-0.00948962
-0.00560166
-0.00198878
0.00759045
0.014538
0.024582
-0.03912
-0.00289187
0.00831523
-0.00542336
0.00146374
0.00642071
-0.00788446
0.0160777
-0.0135748
-0.00250286
-0.00456624
0.0012525
0.00331374
0.00818556
0.00285945
-0.011045
-0.00300866
0.00654504
-0.00353638
0.00715261
0.0050828
-0.0122354
0.0011163
0.00624476
-0.00736106
-0.00293478
-0.00633078
0.00926556
0.000568982
0.00678294
-0.00735192
-0.0276334
0.045146
-0.0175126
0.0344796
-0.062113
-0.00867191
0.0016208
0.00705111
-0.00463701
-0.0040349
-0.00919579
-0.00222101
0.0114168
0.00832622
-0.00467535
-0.00365087
-0.0116657
0.00659411
0.00507155
-0.0072045
0.0107724
-0.00356793
0.00158097
-0.00722477
0.0056438
-0.00313956
-0.00299554
0.0061351
-0.00847066
0.00136785
0.00710282
0.00147615
0.00192138
-0.00339753
-0.00308662
-0.00146832
-0.002256
-0.00612057
0.00837657
0.00974597
-0.00870764
-0.00103832
0.00948247
-0.0111808
0.011021
-0.00833714
0.000508104
0.00447549
-0.0049836
0.00613431
-0.0056262
-0.0266128
0.0345317
-0.00791891
-0.0207361
-0.0058767
0.00227636
0.00584977
-0.00812614
-0.00911631
0.00920004
-8.37317e-05
-0.00533826
-0.00377805
0.0106769
-0.0072671
-0.0034098
0.00667879
-0.0118003
0.00100287
-0.00823616
0.00723328
-0.0040803
0.00756512
0.00625272
-0.010333
-0.00834139
-0.00478467
0.0131261
-0.00724396
-0.00400815
0.0112521
-0.0125815
0.00552638
-0.0078334
0.00384058
0.00148231
0.0040787
-0.00556101
0.00509893
-0.00563691
0.000537989
0.0030034
0.00209553
-0.00108561
0.008135
-0.0070494
0.00563709
-0.00727659
0.027324
-0.000571343
-0.0267526
0.0434743
-0.0161504
-0.0325645
-0.00603761
0.0101689
-0.00887212
-0.00129677
0.00723411
0.00788987
-0.00561488
-0.00227499
0.00165584
-0.0100582
0.00444331
0.00148336
-0.0175411
0.00570601
0.00333983
-0.00904584
-0.00796667
0.0093952
-0.00142852
-0.00617768
-0.0015286
0.00770628
0.00336327
0.00680723
-0.0101705
0.00671402
-0.00541664
-0.00129738
0.00362302
0.00231265
-0.00593567
-0.0208808
-0.0284382
0.0493189
0.00697102
-0.00986288
-0.00555257
0.0112726
-0.00572006
-0.00828517
0.00185387
0.0064313
-0.000340811
-0.00948654
0.00982735
0.0100924
0.0010213
-0.0111137
0.00386678
0.00344573
-0.00731251
0.00788941
-0.0105026
0.00261322
0.00655736
0.000707207
-0.00726457
0.130471
-0.0479493
-0.0825212
0.00010352
0.00950253
0.00824112
0.0112782
0.00480155
-0.0160798
-0.00562605
0.011817
-0.00619096
0.00200447
0.00597357
-0.00797804
-0.00806466
0.00339509
0.00466957
-0.000910715
-0.00606232
-0.00859927
0.0184596
-0.00986037
-0.00337313
-0.00515693
0.00853007
-0.0020992
0.0105296
-0.00843042
0.00477326
0.00799103
-0.0127643
0.00840843
-0.00947593
0.0010675
0.010697
-0.00801164
0.0101612
-0.00700592
-0.00315529
0.00272216
-0.00970731
0.00698515
-0.00440407
0.00712623
0.00059193
0.00667715
-0.00726908
0.0106102
-0.00583692
0.00528237
0.00442062
-0.00970299
0.00586544
0.00254299
-0.00385603
0.00972147
0.010534
-0.00675064
0.00978495
0.00732164
-0.00437161
-0.00170025
0.00885286
-0.010749
0.00782638
-0.021453
0.00518206
0.016271
-0.0136383
-0.0078147
-0.0109693
0.00825244
0.00271681
-0.0101022
-0.000867049
0.000197572
0.00532143
-0.00551901
0.00211349
-0.00690473
0.00479124
0.0313847
0.0196169
-0.0510016
-0.030776
-0.0173618
0.000608661
0.00249958
0.00323716
-0.00573674
0.00470422
0.000468703
-0.0040429
0.0126221
-0.0085792
0.00162768
-0.00739432
0.00576664
-0.0109148
0.00701145
0.00390335
-0.00687754
0.00244527
0.00443227
-0.00586496
0.00726685
-0.0014019
0.00434815
0.0135044
-0.0178526
0.00984689
0.00572493
0.00777951
-0.00609257
0.0108951
-0.00480258
-0.00778383
-0.00328952
0.0110734
-0.00432892
-0.00446639
0.00879531
-0.00206725
-0.00649762
0.00856487
0.0019154
-0.0088386
0.00692319
0.00772902
-0.0105266
0.0173681
-0.00564718
-0.0117209
0.00999896
0.00527213
-0.0152711
0.00928514
-0.0363883
0.0271031
0.00120095
-0.00976769
0.00856674
-0.00544615
0.0115234
-0.0060773
0.00955975
-0.00113772
-0.00842203
-0.00119551
-0.00840799
0.0096035
0.00924726
-0.00786649
-0.00138077
0.000872359
0.00093325
0.00282364
-0.00375689
0.0141086
-0.0041096
0.00648994
0.00761861
0.0132585
0.00167185
-0.00674183
0.00506997
-0.00632606
0.00708534
-0.000759276
-0.00202966
-0.0042964
-0.000436007
-0.00882535
0.00926135
0.00971298
-0.00444085
-0.00169949
-0.0102063
0.0119058
-0.0103956
0.00869611
-0.00510533
0.00952243
-0.0044171
-0.00677607
-0.00297999
0.00975606
-0.0174537
0.0121173
0.00533636
0.0109466
-0.0142906
0.00334394
-0.0390768
-0.0178768
0.0748826
0.055588
0.0113514
-0.0028279
-0.00852354
0.0187288
-0.0127432
0.00938218
0.00923576
-0.0186179
0.0103497
-0.00807329
0.00211803
0.00823162
-0.00673631
0.00885434
-0.00482918
-0.00711551
0.0119447
-0.00354161
-0.00307527
0.00661689
-0.037388
0.0207521
0.0166359
0.0321643
-0.0292839
-0.00288044
-0.0018277
-0.00205971
0.0038874
-0.0357637
0.0233966
0.0123671
0.00621576
-0.0275134
0.0212977
0.00024335
-0.0112925
0.0110491
0.00162381
-0.0120994
0.0104756
-0.0140262
0.0068155
0.00721069
-0.00413075
0.00745005
-0.0033193
-0.00546162
0.0108185
0.00710128
-0.00216003
0.00670685
-0.00454682
0.00241506
0.00359521
-0.00601027
-0.00728723
-0.00188968
0.00917691
0.00355239
-0.00642583
0.00287344
-0.00197469
0.0125243
-0.0105496
0.00699885
0.00737605
-0.0143749
-0.00217699
-0.00810808
0.0102851
0.00542123
-0.00966256
0.00424133
0.00537054
-0.00466523
-0.000705313
-0.00192828
-0.004886
0.00344226
-0.00595232
0.00551599
-0.00804669
0.00761068
-0.00816579
0.00093468
0.00723111
-0.0085718
0.00914675
-0.000574946
-0.0066564
-0.00382915
-0.00875238
-0.0110731
-0.00275596
-0.00745038
-0.0103667
-0.00126986
-0.00618052
0.00536218
-0.00703426
0.00167208
0.00747567
0.000700981
-0.00504601
0.00867928
-0.00894242
0.000263136
0.00203087
0.00664841
-0.0118609
0.00313544
0.00872547
-0.00588457
-0.00551228
0.0113968
-0.0216242
0.0123668
0.00925737
-0.0143703
-0.00725392
-0.00413872
0.0106816
-0.00654287
0.00493966
0.00661071
-0.0115504
0.00166262
-0.00861229
0.00694967
0.0277869
0.00821333
0.0340027
0.142617
-0.238633
-0.190675
-0.0019363
-0.00658855
0.00852485
-0.0059916
0.00405529
-0.00595762
0.0118323
-0.00587467
-0.00183564
0.00367811
-0.00184247
0.017225
-0.0139338
-0.00329125
0.000791128
-0.00577336
-0.0079988
-0.0348493
0.0428481
0.0336143
-0.0416131
0.0112054
-0.0203402
0.00913483
0.00515566
0.00582492
-0.0109806
0.0193261
-0.0119469
-0.00737926
-0.0104948
0.017297
-0.00680215
-0.0123175
0.0268056
-0.0144881
0.0160013
0.0323094
-0.00550385
0.00394977
0.00407703
-0.0080268
0.0188264
0.0224125
0.039537
-0.0212918
-0.0182452
0.00921638
-0.0113024
0.00208597
-0.00870094
0.00970151
-0.00100058
-0.0250117
-0.00250169
-0.0130073
-0.0196201
0.0171184
0.016932
-0.0138432
-0.00308874
-0.0285912
-0.0351208
0.063712
-0.0635092
0.0374594
0.0260498
0.0164335
0.00025105
-0.0166845
-0.00767327
0.00419042
0.00348286
0.00296441
-0.00489764
0.00193322
0.00297621
0.00246097
-0.00543718
0.00594062
0.00558748
-0.00134163
-0.00424585
0.00349082
-0.00445844
-0.00338672
0.00399876
-0.0075379
0.00353914
0.00726281
-0.0100851
0.00886869
0.0012164
-0.00622832
-0.00385678
-0.00256546
-0.00646397
0.00902943
0.000743171
0.00827079
-0.00901396
0.00939849
-0.00865532
-0.00177816
0.0112606
0.00924283
0.000174842
0.00507419
-0.00524903
-0.0044152
0.00459004
0.0119994
0.00267401
-0.0146734
-0.00423531
-0.0142128
-0.0115388
-0.0019922
-0.0075002
0.0094924
0.00572055
-0.00771275
-0.00123215
-0.00626805
0.00142758
-0.0105876
0.00916
0.00419295
0.00565652
-0.00984946
0.00999086
-0.00456963
-0.00394952
0.00419792
-0.0002484
0.0097376
-0.0042478
-0.0054898
-0.0074816
0.0074816
-0.0158164
-0.0225548
0.0383712
-0.00772325
0.00710125
0.000621997
-0.00411437
-0.00187723
0.0262047
0.0033814
-0.0295861
0.0131884
0.0130162
-0.0221167
0.0254981
0.00619123
-0.00408415
-0.00210707
-0.00167122
-0.00516277
0.00683399
0.00452001
-0.00766488
-0.00386426
0.0108115
0.00612045
-0.00106029
0.0118718
-0.00914131
0.0152618
0.010712
0.000571606
-0.0112836
0.00531878
0.0053932
-0.0137638
0.0143354
-0.00537331
0.00700099
0.00548104
0.00536344
-0.0108445
-0.00576696
-0.00378421
0.00949022
-0.00177161
0.00430724
-0.00253563
0.0029441
-0.00672543
0.00378133
0.0160478
0.00143246
-0.0174802
0.0036855
-0.0113137
0.00762819
-0.00337481
-0.00326508
0.00663989
-0.00607414
0.00593993
0.000134215
-0.0489254
0.0674799
-0.0185545
0.00576151
-0.00981516
0.00918517
-0.00285271
-0.00633246
0.00140134
0.0491698
-0.041346
-0.00782382
0.00383558
0.0023772
-0.00621278
0.00544472
-0.00160914
0.00647678
-0.00409958
0.00859264
-0.022231
-0.0449742
0.0262109
0.0187633
0.0380886
-0.0151579
-0.0229306
-0.0208052
0.0235817
-0.00277657
0.0201667
-0.000296334
-0.0198704
0.00892275
0.00539642
0.0105466
-0.00715004
0.0125465
-0.0271586
0.0123529
0.0148057
0.00862094
-0.00944189
0.000820952
0.00338409
0.00523685
-0.00642605
-0.00387891
0.010305
0.00547978
0.00577473
-0.00963076
-0.00223642
-0.00564235
0.00787876
-0.00949394
0.00481277
0.00468117
-0.0117304
0.00274447
-0.0106438
0.00789931
-0.00941953
0.00711813
0.0023014
-0.00667505
0.00401769
-0.0066689
0.00265121
0.00250091
-0.0101806
0.00767971
-0.00350568
0.00350568
-0.00116819
0.00777802
-0.00660982
0.00244121
0.00584031
-0.00828152
0.0190301
0.0205068
0.00165049
0.00868243
-0.0103329
-0.00334334
0.00334334
0.00396957
0.00349586
-0.00221899
0.00618856
-0.00898491
0.0104125
0.000957527
-0.00619264
0.00523512
0.00617884
-0.00128303
-0.00489581
0.00713636
0.00369907
0.00327445
-0.00697353
-0.00327814
0.00689207
-0.00361393
-0.00565507
0.00580672
-0.000151655
0.00610705
-7.49499e-05
-0.0060321
-0.00645719
-0.00534301
0.0118002
-0.0106554
0.00176786
0.00473939
-0.00650725
-0.00957946
0.0225151
-0.0129357
0.0014844
0.00670832
-0.00819272
0.00794836
-0.00646396
0.00259918
-0.00259918
0.00784157
0.00306617
-0.0109077
0.00361784
0.00422373
-0.00456018
0.00762634
0.00999915
-0.00796828
0.00211781
0.00797459
0.0101419
0.00763378
0.00988337
-0.00634067
-0.0035427
0.000735716
-0.00892227
0.00818655
0.00853117
-0.00779546
-0.00144491
0.00771116
-0.00626626
0.00489849
-0.0063434
0.00492092
0.0010818
-0.00600272
0.018438
-0.0159579
-0.00248009
-0.00794321
0.0198251
-0.0118819
0.0283483
-0.0109425
-0.0174058
0.0264301
0.0019182
0.0213669
-0.00865354
0.00197629
-0.000139012
0.00736903
-0.00723001
0.00652377
-0.00649997
-2.37993e-05
0.011083
-0.00778729
0.00241917
-0.0107606
0.0135022
0.00248497
-0.00248497
0.00473394
-0.00562147
0.000887527
-0.00677715
0.00891857
0.00837046
-0.0108873
0.0227813
-0.00824334
0.00680472
-0.0242105
-0.0324539
0.00922068
-0.00263366
-0.00658702
0.00248437
-0.00918491
-0.000265654
0.00945057
-0.00974473
0.00996633
-0.000221592
0.0316345
0.00185258
-0.00528315
0.00528315
-0.00579026
0.00608819
-0.00658007
0.00497179
-0.0331749
-0.00227858
0.0354535
-0.0128271
-0.0203478
0.0339006
-0.0361792
0.00592444
-0.00592444
-0.0183891
-0.0081297
0.0265188
-0.0253041
0.0165805
0.00872365
0.00174985
-0.00174985
0.00347049
-0.00347049
0.00578833
-0.000925604
0.00340082
0.00271092
-0.00611175
0.00488314
0.00450824
0.00556072
0.0020283
-0.00758902
0.00161944
0.00575775
-0.00737718
0.00122111
0.00692917
-0.00815028
-0.0388601
0.020471
0.00378726
0.00344465
-0.00723191
0.00609543
-0.00725664
0.00116121
-0.00398478
0.00655646
-0.00257168
0.00211064
0.00710534
-0.00605587
-0.00104947
0.00331287
0.00379247
-0.0068007
0.000212147
-0.00241252
0.00241253
-0.0229899
0.0411456
-0.0181557
-0.0350183
0.0112578
0.0237605
-0.0312738
-0.00374457
0.0380225
-0.0267647
0.00648521
-0.00183662
0.0010894
-0.00756032
-0.00422135
0.0117817
-0.0116032
0.00866624
-0.0128876
0.0209619
-0.014952
-0.00600989
-0.000746856
-0.0322609
0.0173089
0.00750115
-0.00387812
-0.00256449
0.00256449
0.00828616
-0.0154362
-0.00995598
-0.00262962
0.0125856
0.0263621
-0.0330746
0.00671253
-0.0106121
0.0369742
-0.00258197
0.00876896
-0.00618699
-0.0100351
0.00745315
-0.00367298
0.00720625
-0.00353327
0.00370033
-0.00599231
0.00229198
-0.012231
0.0124743
-0.00759986
0.00154399
-0.00270137
-0.00692667
0.00124176
0.00796376
-0.00920553
0.00748951
-0.00624774
-0.0161897
0.017928
-0.00173829
0.00679243
-0.01601
0.0092176
0.00726803
-0.0101207
-0.00235211
0.00235211
0.00122968
-0.00122968
0.0167664
-0.0139774
-0.00278896
0.00753675
-0.0057712
-0.00176555
0.00831031
-0.000773561
-0.0078958
0.00174467
-0.00372325
-0.00417255
-0.00730464
0.00392983
-0.00420359
-0.00752677
-0.00954185
-5.96232e-05
-0.0045893
0.00464892
-0.0373588
0.0162716
0.0210872
-0.0273245
-0.0084392
0.00070805
-0.00657301
0.00661235
-0.000505301
-0.00354561
-0.0054925
0.00903811
0.00415901
0.0101681
-0.0143271
0.00748847
0.00319641
-0.0106849
0.00384523
-0.006156
0.00231077
-0.000788889
0.00463412
-0.002969
0.00763382
0.00736454
-0.000416553
0.0152477
-0.0148311
-0.0166062
-0.00195597
0.00195597
0.000243222
-0.00219919
-0.0137514
0.00810422
-0.00544192
0.00659574
-0.00115382
-0.00022215
-0.00521977
0.0018654
-0.0018654
0.000148557
-0.00560592
0.00545737
-0.00441338
0.00691296
0.00695356
-0.00738894
0.000435387
-0.0282755
0.0317729
-0.00349735
0.0151988