/*--------------------------------*- C++ -*----------------------------------*\
  =========                 |
  \\      /  F ield         | OpenFOAM: The Open Source CFD Toolbox
   \\    /   O peration     | Website:  https://openfoam.org
    \\  /    A nd           | Version:  6
     \\/     M anipulation  |
\*---------------------------------------------------------------------------*/
FoamFile
{
    version     2.0;
    format      ascii;
    class       volVectorField;
    location    "1600";
    object      U;
}
// * * * * * * * * * * * * * * * * * * * * * * * * * * * * * * * * * * * * * //

dimensions      [0 1 -1 0 0 0 0];

internalField   nonuniform List<vector> 
29874
(
(7.52443 0.0626659 1.07841e-16)
(5.3874 0.0281814 -9.97123e-17)
(5.42403 -0.121062 2.01637e-16)
(7.10983 -0.0800673 -1.20082e-16)
(7.80415 -0.118755 0)
(7.42403 0.00418128 -9.66801e-17)
(4.77404 0.094495 6.68738e-18)
(7.1241 0.0172242 1.96442e-18)
(7.44885 -0.00413229 -1.38889e-17)
(7.19173 0.211796 -1.61738e-17)
(7.20051 -0.115773 0)
(7.23066 0.102957 -3.5404e-17)
(4.4447 -0.0538153 9.18068e-17)
(8.26578 0.0484318 0)
(6.71954 0.20322 1.0616e-16)
(6.6019 0.137173 0)
(4.25762 -0.0199541 0)
(7.79753 0.211887 -1.38737e-16)
(4.96172 -0.0407692 -1.45201e-16)
(7.99515 -0.069508 -2.9083e-18)
(7.11891 -0.0228862 3.43512e-17)
(7.07113 -0.0257044 1.10312e-17)
(7.03497 0.0593299 -9.14528e-17)
(7.52444 0.036393 0)
(5.75737 0.294216 0)
(7.76517 -0.00898241 -2.59183e-17)
(7.96502 -0.0431811 -8.89587e-17)
(5.06744 0.120268 1.20195e-16)
(5.32153 0.122982 2.09621e-17)
(4.94037 -0.118108 4.70896e-17)
(8.06284 -0.0954038 -2.774e-17)
(5.33785 -0.0984589 -2.68774e-16)
(7.84862 0.0548734 0)
(5.18291 -0.0332435 -8.34857e-17)
(7.39506 0.131921 3.33075e-17)
(5.48297 0.109509 -1.40718e-17)
(7.04322 -0.00295148 0)
(7.28779 0.313985 -8.48728e-18)
(7.50971 -0.101051 -6.34536e-17)
(5.34824 0.024144 0)
(7.0004 0.0103871 -3.84021e-17)
(7.02987 -0.0194926 7.83958e-17)
(7.30971 0.00794225 0)
(5.6293 0.0457172 -7.68907e-18)
(8.02237 -0.135251 8.16296e-17)
(7.43421 0.0499468 0)
(4.74398 -0.149894 0)
(8.48009 0.040792 0)
(7.25212 -0.0599545 4.24031e-18)
(7.16662 -0.11317 -6.01351e-17)
(4.48429 0.140896 -9.21671e-17)
(7.87447 -0.0991266 0)
(6.77045 -0.00072804 -4.45986e-17)
(6.59926 0.0700682 3.97719e-17)
(7.66814 0.157669 -1.84257e-17)
(7.71268 -0.00898086 5.20563e-17)
(4.68736 -0.078615 0)
(8.14672 0.0319029 0)
(7.12336 -0.0634449 0)
(7.04435 0.0837813 -8.61339e-18)
(7.27214 -0.129374 1.00724e-18)
(7.23712 0.0153697 -7.19083e-17)
(7.22254 -0.232977 -1.02005e-18)
(7.48573 0.0146773 0)
(5.81297 0.0536919 -4.69784e-17)
(7.46728 0.0318833 -3.61833e-17)
(7.7484 0.14418 -1.89593e-20)
(7.60284 0.00923429 7.32058e-17)
(7.63988 -0.0916848 3.94665e-17)
(7.48972 -0.0797655 3.86179e-17)
(8.25145 -0.138844 4.02283e-17)
(7.61456 0.0175609 5.27735e-17)
(7.53144 0.104031 -3.21063e-16)
(5.65334 -0.133028 3.98064e-16)
(7.03242 -0.128978 3.90645e-17)
(8.06479 0.121984 0)
(7.80241 -0.108595 -1.66867e-17)
(8.00244 -0.0982827 1.68207e-17)
(4.99759 0.112415 6.43273e-16)
(7.356 0.0997597 -1.79255e-16)
(5.38153 -0.0940999 -9.43769e-17)
(7.11989 -0.151305 9.80412e-19)
(6.96886 0.154164 0)
(7.43417 0.192231 -3.76998e-17)
(4.64941 -0.364126 0)
(5.10583 -0.218345 -3.93915e-17)
(7.36282 0.00837761 2.74757e-19)
(7.03531 0.040625 1.70719e-17)
(7.93838 -0.106342 9.53238e-17)
(7.5439 -0.0652805 5.06069e-17)
(3.85711 -0.698256 -4.32812e-18)
(7.00556 0.0774723 4.55306e-17)
(6.95762 0.130927 -2.62482e-17)
(7.45807 -0.0330444 2.82934e-17)
(7.19454 -0.123383 0)
(6.6898 0.0988809 0)
(7.09251 -0.223883 -2.00828e-17)
(4.6686 -0.00403923 8.64764e-18)
(3.5332 -0.566022 -2.12311e-17)
(6.53292 -0.0645411 1.20765e-17)
(7.52391 0.0489519 -3.72467e-18)
(7.01991 0.0931802 1.12459e-17)
(6.99088 0.0897738 0)
(7.35652 0.08454 -8.03565e-17)
(7.10501 0.0923513 -6.03835e-17)
(3.57361 -0.396045 3.88959e-17)
(3.9781 -0.512502 -2.95148e-17)
(7.49783 0.00780895 6.03334e-18)
(7.58616 0.0142612 0)
(7.24318 -0.128961 -9.10443e-18)
(3.92347 0.131577 -2.66348e-17)
(7.94085 -0.171335 8.38127e-17)
(7.99974 -0.172831 -8.9787e-17)
(6.96913 0.119359 0)
(6.97513 0.132124 0)
(6.98449 0.102036 -5.20561e-17)
(6.87633 -0.297772 8.27126e-18)
(7.23033 -0.178496 1.02544e-16)
(0.445766 0.0839815 -6.4052e-17)
(7.0431 0.0845514 2.37877e-17)
(6.97584 0.129768 4.01355e-17)
(8.23406 -0.198192 -1.23227e-16)
(7.19192 -0.102355 -9.90819e-20)
(7.14941 -0.137893 3.78547e-18)
(7.2427 -0.131353 7.62735e-18)
(6.65446 0.159142 -4.343e-18)
(7.46843 -0.141361 0)
(7.20682 0.230837 -1.9177e-17)
(7.02358 0.10893 -4.67976e-17)
(6.56364 -0.264936 4.08646e-17)
(6.99954 0.00693709 0)
(6.75258 -0.2551 2.92543e-17)
(7.13728 -0.117303 -5.13369e-17)
(7.07983 0.0942862 9.35862e-17)
(7.2897 0.116795 3.78807e-17)
(7.11109 0.0560483 -3.22558e-17)
(7.25398 0.117946 7.29551e-17)
(7.035 0.00783485 -9.5363e-18)
(7.34943 0.269974 7.99017e-19)
(7.09862 -0.160817 5.98265e-17)
(7.70161 -0.263548 -7.07938e-18)
(7.75989 -0.0388591 0)
(7.0134 -0.194722 -1.61813e-17)
(7.47427 0.265785 -2.26782e-17)
(7.21169 -0.0573259 -5.01264e-17)
(7.14786 0.187875 -8.11807e-18)
(7.36142 0.032836 3.30152e-17)
(7.31737 0.0707669 5.5779e-17)
(7.00345 0.00648069 -3.02154e-18)
(6.62606 0.123996 -5.74471e-18)
(7.79032 0.0914654 3.32591e-17)
(7.86852 -0.112774 9.93502e-18)
(6.47719 0.196929 0)
(6.95098 -0.0971787 1.29567e-17)
(7.37481 -0.0749415 2.43049e-17)
(7.02468 0.059571 3.62464e-17)
(7.07301 -0.0101164 2.21882e-17)
(7.69343 -0.186218 -3.6593e-17)
(7.92704 -0.0954039 3.81333e-18)
(7.94802 -0.13145 0)
(7.70076 -0.137278 -6.95272e-17)
(7.22723 0.103055 1.88673e-16)
(6.89873 0.15204 -6.33779e-16)
(7.65223 -0.169714 0)
(7.76004 -0.176712 0)
(7.74598 -0.156352 7.06798e-18)
(7.68531 -0.166805 0)
(7.17552 -0.0669785 0)
(7.06549 -0.0128758 -5.72693e-17)
(7.49867 -0.180556 2.08914e-17)
(7.75456 -0.109098 0)
(7.67357 -0.156905 0)
(7.59133 -0.118868 -1.17246e-17)
(4.43237 -0.0185552 -3.62152e-17)
(4.11725 0.102862 7.14024e-18)
(7.49286 -0.138727 0)
(7.30238 -0.163757 1.7579e-17)
(1.28826 -0.109705 -4.23594e-17)
(6.94046 0.0279178 -1.54916e-16)
(6.78982 -0.0178491 7.91751e-17)
(1.27381 -0.0650662 0)
(1.25542 0.0225784 0)
(4.99942 -0.07885 -2.32557e-17)
(6.92405 0.117468 -3.24299e-17)
(6.5842 -0.0297148 1.49858e-18)
(8.23554 0.0576034 -3.67487e-17)
(7.02965 0.129306 -1.01935e-17)
(7.01939 0.111428 -8.67092e-19)
(7.03395 0.079383 5.92212e-18)
(6.98371 0.124165 1.95059e-17)
(6.98612 0.0980511 1.43441e-17)
(8.32716 -0.12495 1.03876e-16)
(6.89737 -0.119446 7.7275e-17)
(6.7162 -0.20394 -4.09122e-17)
(5.19465 0.0275391 -4.45027e-17)
(7.07675 0.0694019 2.20133e-17)
(7.03778 0.0956462 4.65667e-17)
(7.61353 0.157022 0)
(1.34579 0.0204016 6.35315e-17)
(1.72349 0.0136507 0)
(7.73682 0.192335 7.41576e-18)
(8.08116 -0.0713017 0)
(7.63191 0.447703 -1.34237e-17)
(7.59818 0.279257 -1.40321e-16)
(6.97374 0.0899562 0)
(6.79416 0.113687 4.68136e-17)
(6.89722 0.0911169 6.91045e-17)
(7.36816 0.0840833 3.32676e-16)
(7.08874 -0.174428 -5.73588e-17)
(6.88231 -0.240221 -3.12876e-17)
(7.11987 -0.0106837 4.19431e-17)
(7.30932 0.0282619 -2.33182e-17)
(6.37541 -0.126629 -6.37048e-17)
(6.80717 0.0917055 -1.38862e-16)
(7.27184 0.212413 3.05445e-17)
(7.17098 -0.208554 -5.14742e-17)
(7.25613 -0.183557 -5.03934e-18)
(7.19504 -0.156562 -2.63686e-17)
(7.27289 -0.133255 1.66539e-17)
(7.4501 -0.139872 0)
(7.66045 -0.001452 -9.97152e-17)
(8.28958 -0.0667683 -3.13584e-17)
(6.89762 0.0111775 4.82812e-17)
(7.42567 -0.0558159 -3.74437e-18)
(7.00125 0.0531386 -5.93964e-17)
(7.31802 0.0528285 0)
(7.60248 -0.0162589 7.38842e-18)
(7.45399 -0.123068 -7.33234e-18)
(7.79606 0.163922 -2.85856e-17)
(6.9903 0.22885 -1.77632e-17)
(7.00368 0.0227879 0)
(7.00156 0.0441753 4.84577e-17)
(7.38271 -0.0831596 -1.15619e-17)
(7.25842 -0.0583074 1.07488e-17)
(6.80123 -0.0849842 4.1529e-17)
(6.92898 -0.0774204 0)
(6.50386 -0.230008 0)
(7.7569 -0.112341 -2.08228e-17)
(7.58711 -0.130054 8.22611e-18)
(7.81609 0.0777804 -7.63956e-18)
(8.01293 -0.0779493 5.85102e-17)
(2.5102 1.29257 -7.01357e-18)
(2.99588 -0.478725 7.42056e-18)
(6.12125 2.42432 -2.31102e-18)
(6.24256 2.4659 0)
(3.02567 -1.38575 1.31919e-17)
(2.94673 -1.36589 1.38057e-17)
(7.54644 -3.85527 4.89107e-18)
(6.63035 1.12728 1.50092e-17)
(7.68924 -1.40168 2.40184e-19)
(4.29096 -0.74189 -2.12742e-17)
(6.61998 1.63283 9.92076e-19)
(4.98453 -1.36651 -1.65538e-17)
(4.00515 -0.735076 0)
(7.08782 -0.310136 -7.26964e-18)
(3.25794 -0.464714 -2.22961e-17)
(4.11628 -1.40056 -1.47717e-18)
(0.634408 0.308371 6.90807e-17)
(7.74179 -1.35669 2.93763e-19)
(4.2067 0.164384 2.55734e-18)
(6.23195 -3.57031 1.27113e-18)
(4.01663 -0.429622 -3.72605e-19)
(4.11771 -1.47969 0)
(6.6527 -3.24742 1.62299e-18)
(6.86889 -3.39844 6.50081e-18)
(6.70024 -3.90844 2.5936e-18)
(6.78095 -3.89327 -1.55549e-18)
(6.28697 2.19632 -1.76125e-18)
(6.23286 2.30056 1.91823e-18)
(0.7152 -0.372447 0)
(3.17645 -1.35665 2.71237e-18)
(3.08785 -1.30231 -1.90533e-17)
(4.10501 -0.748137 2.081e-17)
(6.09137 -1.69094 -1.10468e-17)
(6.6345 2.71544 2.96337e-19)
(6.10809 2.74287 1.03853e-19)
(6.07587 -4.0967 1.79349e-18)
(1.55139 0.599761 -1.73005e-17)
(6.07897 2.36969 -3.13088e-18)
(6.79036 -1.93085 0)
(6.91033 -1.83661 2.34729e-20)
(6.8709 1.74295 -3.69586e-19)
(6.7961 1.744 0)
(6.47959 1.9624 -2.31552e-18)
(6.52795 2.00408 0)
(6.53503 1.02808 0)
(6.70128 1.83412 -1.17408e-18)
(6.76069 1.82983 1.0171e-18)
(3.27481 -0.594763 3.09026e-17)
(3.38579 -0.64079 3.02712e-17)
(5.93023 2.67879 -2.19648e-18)
(6.25569 2.46969 0)
(6.23356 2.47682 0)
(7.48504 -3.27029 4.69389e-18)
(7.37902 -3.58833 7.73072e-18)
(4.24362 -0.616063 0)
(4.25207 -0.318754 0)
(6.14261 -3.87072 1.83829e-18)
(4.78782 -1.14024 4.16171e-17)
(4.24428 -0.978724 -1.18091e-17)
(3.64411 -0.701523 -3.78642e-17)
(3.70998 -2.18867 3.23991e-18)
(6.30968 2.12342 0)
(3.65215 -1.58606 -3.8217e-18)
(6.21527 2.463 3.71324e-19)
(6.24461 2.35103 -4.66723e-19)
(3.23207 -1.26275 9.74957e-18)
(6.79233 -0.387137 0)
(6.06517 -3.90051 0)
(2.89571 0.0263865 0)
(6.73677 -4.29179 1.86303e-18)
(6.74161 -4.25062 -9.00392e-19)
(6.08776 -3.95999 0)
(6.16502 -3.97983 -3.59781e-18)
(6.03882 -4.01008 1.79283e-18)
(4.12448 -0.407248 1.25188e-18)
(4.15441 -0.552251 2.48441e-21)
(6.92338 -3.07829 -2.6218e-19)
(6.22163 2.19882 3.05619e-19)
(6.19404 2.26343 4.67571e-18)
(6.83563 -3.60295 3.34051e-18)
(6.9711 -4.38817 0)
(3.16329 -1.50154 -7.4009e-18)
(3.10398 -0.313433 0)
(6.14534 2.26364 -5.01694e-18)
(6.13152 2.30063 0)
(6.11336 2.20722 0)
(7.07001 0.248833 -1.93393e-17)
(4.23959 -0.397123 -3.38404e-18)
(4.24635 -0.542026 -3.75344e-18)
(6.5974 0.500098 -7.5869e-17)
(6.70458 0.383609 -4.78763e-17)
(4.12097 0.881981 2.07202e-18)
(4.08626 1.02784 -2.5838e-18)
(6.79544 -4.23091 0)
(6.38646 -3.85156 1.61774e-19)
(6.27774 2.39261 0)
(6.34141 2.35565 0)
(6.31335 2.33356 0)
(6.31201 2.40688 0)
(3.07159 -1.19119 -5.45353e-18)
(5.95058 -4.00283 0)
(3.05796 -0.490103 9.96574e-18)
(3.14312 -0.485818 -6.38143e-18)
(3.11008 -0.410129 -1.76753e-17)
(3.09592 -0.531991 -5.19566e-18)
(6.42054 2.26359 4.9858e-19)
(6.3782 2.23521 3.66067e-18)
(6.87206 -4.31064 1.93198e-18)
(6.23563 2.4232 3.40879e-19)
(6.6478 1.52467 9.02824e-18)
(7.46272 -0.441145 0)
(6.9639 -2.61109 1.98883e-17)
(7.35484 -3.04634 4.28191e-18)
(6.44226 -2.21103 0)
(7.05907 -0.342654 3.01805e-18)
(3.27883 -0.340612 0)
(3.2968 -0.115886 0)
(5.75016 -0.773292 0)
(0.645781 -0.200894 6.3303e-17)
(6.95229 -2.88047 -6.44082e-19)
(2.84237 -1.89552 -1.12225e-18)
(7.29738 -2.87923 0)
(3.08432 -0.639392 4.59496e-18)
(3.0772 -0.838218 9.89255e-18)
(6.2643 2.45106 -7.20959e-20)
(6.25451 2.43376 -1.2632e-20)
(6.29088 2.44177 1.03383e-19)
(6.18994 0.32951 -7.77503e-17)
(3.48829 -0.163071 3.02774e-17)
(3.35951 -0.319827 2.17968e-18)
(3.50559 -0.323181 -3.35739e-17)
(3.37543 -0.154701 -2.29178e-18)
(6.99006 0.170269 1.94654e-17)
(7.04592 -0.248497 -3.08429e-18)
(3.5255 -0.0937466 -2.44142e-17)
(3.80755 0.0533434 -5.81467e-18)
(3.7758 -0.117179 1.07097e-18)
(3.67362 0.621935 0)
(3.87803 0.366647 2.59565e-17)
(2.99896 -1.17897 0)
(2.98323 -1.08357 6.76672e-21)
(6.60711 -0.562571 7.63777e-18)
(6.65828 -0.355637 3.218e-18)
(6.22257 2.33727 -4.97223e-19)
(6.25064 2.38221 5.2336e-19)
(3.45217 -0.267981 2.03683e-17)
(6.38531 2.36319 0)
(6.41742 2.31991 0)
(6.4001 2.43501 0)
(7.10735 -3.63689 7.04526e-18)
(7.28879 -3.67889 0)
(2.90947 -0.459209 -6.35492e-18)
(7.22277 -3.0669 -6.78672e-18)
(6.97429 -3.27403 7.12208e-18)
(6.81874 -4.34025 0)
(6.7699 -4.29804 -1.96185e-18)
(6.83208 -4.3023 8.49757e-20)
(6.76293 -4.34267 0)
(6.72338 0.280815 0)
(6.74607 -3.76372 8.42214e-20)
(6.80264 -3.84203 1.60771e-18)
(6.84015 -3.69803 -1.59218e-18)
(6.43366 -0.41739 -4.02823e-17)
(6.45219 -0.535962 5.473e-17)
(6.51917 -0.359991 -6.13638e-17)
(3.13422 -0.264133 5.51317e-18)
(3.22386 -0.16733 -5.68425e-18)
(3.15427 -0.164236 -2.87328e-18)
(3.21445 -0.27102 2.7591e-18)
(4.39675 -0.411666 -3.12483e-17)
(4.1728 -0.5259 1.08992e-18)
(4.29813 -0.542947 0)
(4.33189 -0.313719 1.8974e-17)
(6.84092 0.564701 1.80143e-17)
(3.29677 -3.09887 4.09556e-18)
(3.49398 -2.91694 1.80152e-18)
(3.37813 -1.82166 6.2329e-20)
(3.22848 -1.85888 -5.18882e-18)
(3.1206 -0.139656 -5.06615e-18)
(3.12607 -0.0219199 5.42927e-18)
(3.02871 -0.160776 0)
(4.14151 0.489252 0)
(3.87651 0.781545 9.08236e-18)
(4.33848 -0.233667 0)
(4.13141 -0.0237972 0)
(4.05798 -0.214602 0)
(4.35398 -0.102775 0)
(6.89859 -1.6569 6.4141e-20)
(6.89775 -1.72253 0)
(6.53132 -3.69238 1.48619e-18)
(6.55937 -3.80161 0)
(6.64208 -3.72627 2.31567e-19)
(6.48272 -3.71642 -4.5314e-18)
(4.05079 1.1017 0)
(6.59362 -3.33555 -6.16585e-18)
(6.36747 -3.49737 0)
(4.08605 1.58553 -1.17529e-18)
(4.14003 1.12924 0)
(3.72653 -0.381438 -2.42102e-17)
(3.96524 -0.229855 0)
(3.81162 -0.186962 0)
(3.94285 -0.380397 2.98344e-17)
(3.41845 -1.14365 4.17651e-17)
(3.35995 -1.26949 -1.49824e-17)
(6.92824 0.138308 -4.7831e-18)
(6.57442 -0.062324 9.20558e-17)
(6.53103 -0.16939 0)
(6.48801 -0.125726 9.17238e-17)
(6.61225 -0.147387 0)
(3.3602 -1.03841 -1.81042e-17)
(3.43685 -0.900729 0)
(3.23841 -0.999033 0)
(4.47049 -1.09221 -2.51398e-17)
(4.63494 -0.722433 -1.13031e-17)
(4.45197 -0.822034 1.16817e-17)
(6.53268 -3.93132 1.25883e-18)
(6.55933 -3.85259 2.06446e-18)
(6.62019 -3.88015 -1.33059e-18)
(6.49729 -3.86564 -2.84871e-18)
(7.05846 -3.57204 -8.97026e-18)
(6.93793 -3.44745 -5.7827e-18)
(7.09762 -3.47747 2.07171e-18)
(6.9112 -3.55716 -4.09316e-18)
(4.10363 -1.04619 0)
(4.09942 -1.13677 0)
(4.0407 -1.03845 -3.70913e-19)
(6.10194 2.80156 4.25814e-20)
(7.34438 -0.181103 -2.90636e-17)
(7.16352 -0.21153 3.37118e-18)
(7.23772 -0.201091 1.80933e-17)
(7.27088 -0.183218 -1.23073e-17)
(6.36235 2.94552 -7.218e-20)
(5.25073 -0.144526 5.14953e-17)
(6.10929 2.37202 -1.63776e-18)
(6.12305 2.39912 -7.63126e-19)
(6.14238 2.33765 1.36028e-18)
(3.42115 -1.39588 0)
(3.3417 -1.54753 0)
(3.60711 -1.41473 2.60588e-17)
(6.07448 -1.34349 6.38969e-18)
(3.5508 0.377153 0)
(3.7237 0.378532 2.54141e-19)
(3.65287 0.298321 0)
(3.62765 0.509635 -1.08045e-17)
(6.93725 0.430925 2.28616e-17)
(3.08694 -0.922003 2.87827e-18)
(2.99325 -1.0324 -6.48917e-18)
(2.99796 -0.961472 3.42488e-18)
(3.08724 -1.01697 0)
(8.02735 0.196506 -6.55005e-17)
(0.57665 -0.0933019 1.22813e-16)
(7.74992 -0.343391 4.47291e-17)
(8.06993 -0.0249947 0)
(1.8172 -0.158505 -3.35718e-17)
(7.08537 0.287971 -1.7341e-17)
(4.66532 0.0628489 -8.13763e-17)
(6.99738 0.0212395 3.52578e-17)
(7.00739 0.107926 -2.2888e-17)
(7.00661 0.0824733 -4.58534e-17)
(7.95941 -0.22594 0)
(3.36111 -0.441885 -3.35883e-18)
(6.75728 0.283032 0)
(6.80165 0.236522 1.81279e-17)
(6.07508 -0.0888328 0)
(6.31236 0.192183 -9.06372e-17)
(6.20418 0.237894 4.81352e-17)
(6.51154 0.0751594 2.55445e-17)
(6.44028 0.118273 0)
(2.89465 -0.271753 7.14637e-18)
(6.91809 0.176418 -4.27639e-17)
(6.89595 0.209991 -4.72007e-17)
(5.40578 -0.168358 -3.1872e-17)
(6.95759 0.295808 1.76038e-17)
(6.94678 0.34812 1.18587e-17)
(2.90347 0.523601 2.73831e-17)
(7.00935 0.0754672 4.05427e-17)
(7.6932 0.332702 -1.92128e-17)
(0.425761 0.120831 -7.94354e-17)
(7.00035 0.143643 -1.39129e-17)
(6.96997 0.229558 2.84918e-17)
(7.19075 0.280853 0)
(5.43943 -0.32888 -6.33333e-17)
(7.39538 -0.205678 9.11816e-17)
(3.05444 -0.302513 3.60704e-18)
(3.24819 -0.214308 -1.9298e-17)
(6.88961 0.877608 1.21676e-17)
(7.01207 0.118505 3.02449e-17)
(7.31965 -0.251604 -2.41669e-17)
(7.37595 -0.268222 -8.44944e-17)
(7.32576 -0.323149 2.77229e-17)
(7.61321 -0.195959 4.09396e-17)
(6.57309 -0.397808 7.08762e-18)
(6.55235 -0.499126 -9.76717e-18)
(7.11081 -0.17897 8.19063e-19)
(7.09521 -0.217627 2.36136e-17)
(7.05503 0.207134 -1.03495e-17)
(6.36511 -0.288251 -6.92216e-17)
(6.71009 -0.410723 0)
(6.68256 -0.525765 0)
(6.98793 -0.155458 -4.7148e-18)
(6.88568 -0.162622 0)
(0.403903 0.117251 0)
(3.05705 0.477788 1.60163e-17)
(7.55187 -0.14743 3.16727e-17)
(7.63555 -0.121452 5.68732e-18)
(7.25337 0.396223 1.84969e-19)
(7.07311 -0.22054 0)
(7.13165 -0.18942 0)
(6.69811 0.226917 -1.71477e-17)
(7.57562 -0.381894 0)
(7.00244 0.068991 -2.18016e-17)
(6.99691 0.0859387 7.8416e-17)
(7.01225 0.176378 -3.41447e-18)
(7.34613 -2.86349 1.5032e-17)
(6.82837 -2.3599 -1.16938e-17)
(6.83852 -2.25143 1.08352e-17)
(5.6809 0.0863473 3.85226e-17)
(7.00976 0.151781 0)
(4.93711 -0.112784 -2.31841e-16)
(7.36471 -0.351571 0)
(6.69905 -0.0718521 -2.42082e-17)
(6.46684 -0.0785237 1.14412e-17)
(6.34503 -0.0816217 1.12984e-17)
(7.10973 0.329117 -2.8027e-17)
(3.0981 -0.543856 0)
(7.46508 -0.37514 8.1548e-18)
(7.41956 -0.341754 -3.8617e-17)
(4.76605 -0.141106 0)
(4.95809 -0.130652 0)
(2.9474 -0.937515 9.07715e-20)
(7.80664 0.228384 -9.66031e-18)
(7.22267 0.21734 -4.04138e-17)
(7.29439 -0.0339076 0)
(8.36206 -0.058616 -1.0658e-16)
(7.16066 0.365074 0)
(7.12673 0.32389 1.34199e-17)
(6.94443 0.191185 -3.18107e-17)
(4.75294 -0.507485 0)
(8.15709 0.10557 -4.04941e-17)
(7.95098 0.184403 -8.47301e-17)
(5.97182 0.0271304 4.81364e-17)
(5.81979 0.0982997 -5.63681e-17)
(7.3407 0.0935417 -1.40983e-17)
(6.37217 2.10451 1.48605e-18)
(6.40614 2.01225 -1.62266e-18)
(5.98946 -0.136011 -1.96252e-17)
(7.00074 0.0208005 0)
(6.97662 -0.315887 -2.4018e-18)
(7.05416 -0.245863 -2.43983e-18)
(6.99834 -0.273488 0)
(8.14382 -0.0284716 1.27928e-17)
(8.07315 0.0336029 -2.55685e-17)
(3.94719 0.49305 0)
(3.8333 0.654147 1.98569e-17)
(6.41052 2.14672 2.58576e-18)
(6.49361 2.10099 -2.38828e-18)
(6.7865 0.0442878 1.4506e-16)
(6.57075 0.0470925 5.34515e-17)
(0.740062 0.161137 1.03805e-17)
(5.15263 -0.0494471 5.54577e-17)
(7.07526 -0.00709464 -9.70866e-17)
(6.94436 0.135399 -3.91639e-17)
(6.8779 0.155159 6.39337e-17)
(6.82912 0.1892 -5.62938e-17)
(7.00955 0.0546106 0)
(7.00207 0.0433086 -1.09541e-17)
(6.92202 -0.349778 2.41074e-18)
(6.92818 -0.29608 -8.29574e-18)
(6.99999 -0.256505 0)
(3.64049 -1.32592 -2.85215e-17)
(3.54408 -1.15716 -8.06165e-18)
(3.63478 -1.03057 0)
(6.88484 0.173864 -6.7444e-17)
(6.84949 0.241564 -3.72497e-17)
(6.87233 0.208546 4.42852e-17)
(6.81969 0.256659 6.04198e-17)
(7.83208 0.346671 1.01801e-16)
(7.7839 0.301177 -4.39248e-17)
(7.82795 0.228164 0)
(6.81254 -0.0835327 2.82618e-17)
(3.05605 -1.51657 -7.24546e-18)
(6.61181 0.103443 -2.56103e-17)
(6.57584 0.151116 4.33741e-18)
(6.94724 0.0594927 1.10767e-16)
(7.27125 -0.0820417 1.34353e-16)
(3.63462 -1.59071 0)
(3.43713 -1.67538 4.70057e-18)
(5.65176 -0.0419963 -9.12064e-17)
(5.48671 -0.058939 3.76989e-17)
(7.37602 0.103277 0)
(6.8382 -0.0836794 8.44207e-17)
(7.51859 0.0777864 -4.74298e-17)
(7.33661 -0.161951 0)
(7.53423 -3.57852 9.45666e-18)
(7.47912 -3.34731 -9.52282e-18)
(5.0798 0.0680263 0)
(5.24368 0.00975188 -4.90334e-17)
(5.39069 0.0781491 3.32472e-17)
(4.23336 0.297846 0)
(4.3957 0.255676 2.15381e-17)
(6.86108 0.275386 -1.53843e-17)
(6.84893 0.316459 -1.39919e-17)
(6.82031 0.330605 0)
(7.95021 -0.209394 -7.2436e-17)
(7.05403 0.0101812 0)
(6.96896 -0.00536826 -3.82034e-17)
(6.50287 -0.00322074 -1.66317e-16)
(6.34026 -0.0736172 0)
(6.40807 0.000704517 9.96286e-18)
(7.11635 0.252418 1.86778e-17)
(7.12093 0.288409 3.4468e-18)
(6.22826 -0.0524986 0)
(6.21097 0.0435966 -2.4526e-17)
(6.10345 0.0972693 -1.12829e-16)
(7.01319 0.0295986 0)
(7.53308 -0.348595 0)
(7.66439 -0.299596 0)
(7.66453 -0.271965 0)
(0.788313 -0.10824 -5.28878e-17)
(2.96538 0.467419 -7.64067e-18)
(7.10956 -0.245886 0)
(7.07678 -0.283747 1.25627e-17)
(7.04055 -0.278359 -7.94231e-18)
(3.65838 -0.72916 6.12099e-18)
(3.57736 -0.887543 0)
(7.7196 -0.121109 8.68184e-18)
(7.97465 0.0723748 6.53565e-17)
(7.71541 0.149498 0)
(9.69273 0.442132 1.13468e-18)
(9.64325 0.508313 0)
(6.00102 1.16782 1.6023e-19)
(6.57207 -4.48827 1.39808e-20)
(6.65482 0.560585 -7.02026e-17)
(3.91089 0.360209 2.0216e-18)
(6.51443 1.17053 -3.17586e-20)
(2.9355 0.509692 6.7046e-18)
(3.90242 -0.678094 0)
(6.11922 3.14439 1.53664e-19)
(5.51282 -3.16018 0)
(5.54149 -3.24178 0)
(7.20694 -4.43328 0)
(6.27624 2.21991 0)
(6.27798 2.2054 3.34679e-20)
(6.12104 2.34287 0)
(6.1175 2.36587 -1.90914e-21)
(6.14606 0.749549 0)
(7.90496 0.283354 -5.21647e-19)
(7.00551 -2.15397 0)
(3.77107 -2.30186 1.67717e-18)
(4.36418 0.226579 2.61193e-19)
(6.19534 -2.18643 7.42375e-20)
(6.23828 -2.23817 -9.35905e-20)
(7.06349 -4.44844 -2.21496e-19)
(7.06975 -4.45135 0)
(6.94131 1.05346 0)
(8.37174 0.939879 0)
(1.53175 -1.69259 4.22493e-17)
(2.81011 0.0915358 -2.19214e-18)
(2.46351 -2.8469 -6.00545e-18)
(2.35774 -2.79577 0)
(6.48861 2.72568 1.30953e-20)
(7.43892 0.788087 0)
(7.42741 0.830062 0)
(4.91284 0.967659 0)
(3.49038 -2.75788 0)
(7.42639 0.532952 -2.99196e-20)
(2.5843 -0.860053 -5.14201e-18)
(7.17953 1.26264 3.12551e-20)
(3.57348 -1.91961 -2.16405e-18)
(6.11019 0.767408 -1.40772e-22)
(4.26141 1.05815 0)
(4.23688 1.01696 0)
(6.51845 2.93975 0)
(8.01795 0.18399 -5.07072e-19)
(6.86351 -4.47014 1.05793e-18)
(3.21069 -3.73233 2.21105e-18)
(3.346 -3.44852 2.90191e-20)
(6.97877 1.04379 0)
(8.47587 -0.565698 0)
(6.06431 3.17101 -3.85208e-19)
(6.01576 3.13088 0)
(6.03238 2.92687 6.58584e-19)
(6.68559 -0.747518 1.95395e-17)
(7.98538 0.511287 0)
(7.2994 0.962038 -6.99639e-20)
(6.68555 -0.842559 2.28771e-17)
(6.07131 3.53528 -1.66442e-21)
(6.80061 -2.1008 -6.43255e-20)
(6.79479 -2.05267 7.68845e-20)
(7.17982 -4.38383 1.04214e-18)
(7.19414 -4.36952 3.5204e-18)
(7.4257 0.684998 -5.0596e-20)
(7.43211 0.626249 -1.40906e-20)
(8.64289 -0.271206 1.41196e-18)
(6.22084 2.19108 0)
(6.25818 2.19763 -3.11074e-20)
(8.94526 1.00586 2.03029e-18)
(6.4706 0.991839 2.96807e-20)
(6.13821 -4.33289 2.30923e-18)
(5.47822 -3.02541 -2.16246e-18)
(5.85716 3.1021 -3.04385e-20)
(6.39866 -2.3577 2.79203e-20)
(7.79401 0.213205 0)
(6.01286 -2.43481 4.48518e-18)
(6.38677 0.904082 -7.7104e-18)
(6.29144 -1.49271 0)
(3.8955 -1.39907 3.27728e-17)
(9.05457 0.0337505 2.98304e-20)
(3.32634 2.19163 -2.56793e-18)
(5.71983 2.49486 1.41186e-18)
(5.66887 2.45897 -1.38001e-18)
(7.28618 1.13521 0)
(4.01361 -0.813762 -3.56173e-19)
(4.03421 -0.9818 -3.2995e-19)
(6.23337 2.33557 1.90594e-19)
(6.27557 -2.34463 6.62328e-20)
(4.33494 1.76288 -2.67109e-19)
(2.94487 -0.0735757 6.4275e-18)
(3.01365 0.0911957 1.15706e-17)
(7.34667 -1.36605 2.38615e-19)
(6.18537 0.972566 1.26118e-19)
(6.21102 0.996574 -2.04959e-19)
(6.37956 -4.4868 -1.23853e-18)
(6.29629 -4.47649 -2.63664e-20)
(8.36942 0.281412 3.86064e-19)
(8.36734 0.332874 2.77131e-19)
(7.19944 -1.6676 0)
(7.0513 0.516353 -8.6915e-21)
(4.28753 1.43835 1.39902e-18)
(4.36694 1.35227 1.8255e-18)
(7.04951 3.33304 1.21117e-19)
(7.14531 0.64363 -3.18114e-20)
(5.72238 -4.1713 -1.22714e-18)
(6.24473 3.30562 9.26323e-21)
(6.32172 3.19324 -2.62413e-21)
(4.59048 -0.254332 -1.4657e-18)
(4.76482 -0.335745 -7.10806e-19)
(7.88566 -0.861425 0)
(6.68127 0.590768 1.09624e-19)
(7.95756 0.708851 0)
(7.83659 0.668506 2.25935e-19)
(6.49483 0.717912 -1.7506e-19)
(4.22804 -1.49105 0)
(4.169 -1.5132 0)
(6.35728 0.954583 2.52404e-20)
(7.60405 0.182231 -1.23419e-19)
(7.28549 -4.36141 0)
(5.63328 1.22031 0)
(7.66701 -3.64398 0)
(6.65929 -4.52556 6.89381e-19)
(6.64013 -4.5408 1.23851e-18)
(4.59005 0.189318 1.8384e-18)
(4.60929 0.121675 -1.65142e-18)
(3.47067 -1.10192 -3.5852e-19)
(8.39631 -4.53057 1.05427e-18)
(7.9514 -2.70751 1.23217e-19)
(1.20557 -3.33816 4.72841e-18)
(8.03023 -3.84125 4.57561e-19)
(5.94627 2.14195 -1.04661e-19)
(6.18951 2.45965 5.35227e-19)
(7.51674 -0.597825 -3.04628e-19)
(7.62366 -0.590498 1.2933e-19)
(5.80251 2.95383 7.0718e-20)
(4.07202 -0.64361 1.39686e-18)
(3.9523 -3.07532 6.79678e-18)
(6.64359 1.13803 0)
(9.33383 -2.10322 2.31173e-18)
(7.55656 0.920599 1.88482e-19)
(7.02952 -1.13356 0)
(6.72217 0.692908 3.98833e-20)
(6.20718 1.95269 6.7001e-19)
(6.16427 1.91316 -1.37674e-18)
(8.18375 -0.413521 4.40829e-19)
(8.16425 -0.32459 -8.01707e-19)
(5.98798 -2.66199 -3.62555e-19)
(4.43033 0.705986 -9.41076e-19)
(6.35838 2.36655 -8.69618e-20)
(6.42279 3.08029 -1.60666e-21)
(7.26066 1.08418 1.87634e-20)
(5.98216 1.09882 1.55396e-19)
(6.9793 0.585133 0)
(2.4005 -1.92912 0)
(3.89689 -0.590993 0)
(8.17999 1.61642 1.30458e-19)
(7.80947 -0.707562 2.31025e-19)
(7.12556 -1.66968 -1.41566e-19)
(6.97782 -1.72289 0)
(4.8116 0.0321654 -1.68134e-18)
(4.86561 0.0216159 0)
(5.50981 -3.5523 -1.0998e-19)
(5.633 -3.59876 -7.35249e-19)
(6.71093 -1.01812 0)
(8.40923 -0.122673 0)
(8.39564 -0.0702021 0)
(7.11984 -4.43806 0)
(7.0875 -4.44698 0)
(6.54349 2.53776 6.72204e-21)
(6.53588 2.97571 -6.06378e-21)
(6.52722 3.01391 1.67921e-20)
(6.31669 2.36384 -1.05911e-19)
(7.37494 -1.51327 2.54092e-19)
(7.24235 -1.60183 9.96007e-20)
(7.04403 3.38575 -2.70543e-19)
(5.73794 1.17433 0)
(5.92337 1.0978 3.04846e-19)
(5.93262 1.05203 1.56739e-19)
(7.27397 0.824085 1.5701e-19)
(7.37757 0.836002 -1.43886e-19)
(7.68643 -4.4537 5.25164e-18)
(7.75067 -4.41863 0)
(6.05704 2.33416 -2.98827e-20)
(7.11225 -1.02592 1.00546e-19)
(7.09152 -1.12203 0)
(2.9812 0.623152 -6.95963e-18)
(2.94443 0.581444 7.90733e-18)
(2.97621 0.740697 -3.54418e-18)
(7.00902 -4.39241 1.20752e-18)
(6.07612 -0.238732 0)
(6.3098 -0.91094 0)
(5.88022 0.615533 4.01645e-19)
(5.88986 -2.15601 0)
(4.53759 0.677191 -1.02218e-19)
(4.60507 0.573541 1.25351e-18)
(7.31881 -3.98024 4.71483e-18)
(7.44884 -0.593409 -3.5454e-19)
(6.23093 2.2516 -1.67893e-19)
(7.24 1.73099 8.81995e-20)
(8.25863 -0.743855 0)
(8.34201 -0.604886 0)
(6.16499 0.38173 9.94427e-21)
(7.21749 -2.00101 3.64921e-19)
(6.71795 -4.54922 -2.91143e-19)
(6.49445 1.52005 8.93963e-19)
(7.86478 0.639841 0)
(7.93836 0.658933 0)
(6.46949 -4.43619 7.03876e-19)
(6.57389 -4.44753 0)
(7.35468 -4.63748 -9.31403e-19)
(4.74001 0.36134 0)
(4.57878 -0.186169 2.43431e-19)
(3.3376 -3.25569 0)
(6.33441 2.25614 1.03202e-19)
(6.51518 -4.54927 0)
(6.3242 2.29238 4.98478e-20)
(6.36356 2.32522 -8.68398e-20)
(5.46734 -3.2956 3.36667e-19)
(5.30732 -3.37997 0)
(7.70421 -1.08038 0)
(7.65261 -1.12836 0)
(8.17515 1.17895 0)
(6.30547 2.2794 -5.24054e-20)
(6.27195 2.2464 1.63488e-19)
(6.36095 2.30396 -5.58872e-20)
(6.38209 2.30085 4.82396e-20)
(6.34589 2.2885 7.34838e-22)
(7.49531 0.626701 -1.31215e-19)
(4.94124 0.934729 0)
(9.26121 -2.15014 9.88846e-19)
(6.49157 2.7608 4.25278e-21)
(6.29432 2.56673 -2.6574e-19)
(6.26207 2.5761 0)
(5.98949 -4.39065 -4.75173e-19)
(5.98459 -4.42238 4.83881e-19)
(6.80451 1.02257 -8.16236e-22)
(4.23995 0.65502 -4.65693e-20)
(4.99162 -1.6302 -1.90935e-17)
(4.63223 -1.30113 2.13091e-17)
(5.74232 -1.99003 1.5747e-18)
(6.22572 1.06957 1.38251e-19)
(3.88537 0.295607 -3.25431e-18)
(6.09677 2.30043 -1.46326e-19)
(6.45553 2.36343 1.15293e-20)
(8.12195 -4.44093 -1.34365e-18)
(4.4241 1.23787 0)
(4.9599 -0.383355 -9.71181e-19)
(6.0859 2.38241 4.66701e-19)
(6.09846 2.36876 -6.3363e-19)
(6.06287 2.37173 -1.34685e-19)
(6.52827 -2.00652 4.42747e-20)
(7.11446 -1.39982 0)
(8.04878 -4.19547 1.31374e-18)
(6.8822 -1.40806 2.37038e-20)
(6.76876 -1.48144 2.95639e-20)
(7.76415 0.65551 1.62876e-19)
(6.95981 -4.42423 -2.41437e-21)
(6.88312 -4.44216 0)
(6.11072 -3.3785 7.19818e-19)
(7.55437 -4.46283 3.81552e-19)
(6.49494 -3.1164 1.50589e-19)
(6.78876 -4.51983 1.04805e-18)
(8.29415 -1.30608 -9.2412e-20)
(3.34392 -3.24903 -1.92019e-18)
(3.40994 -3.30238 -6.84098e-21)
(1.71545 -1.44711 1.62483e-17)
(6.89851 -4.42702 3.63335e-19)
(6.87499 -4.41342 0)
(6.93683 -4.41616 -4.04842e-19)
(2.82553 0.724936 -9.91319e-18)
(4.57711 0.903373 -4.35866e-19)
(4.57423 0.961979 2.25796e-18)
(6.30927 -1.65553 0)
(6.84799 -4.44392 9.37249e-19)
(8.03144 -0.84192 -1.55613e-19)
(8.12565 -0.794081 -1.8573e-19)
(6.4116 -0.429603 -1.74867e-19)
(7.53057 0.83963 1.28665e-19)
(5.45394 3.01645 -4.82131e-19)
(3.17848 0.541206 0)
(7.57594 -3.97624 0)
(6.46071 1.59714 4.52516e-18)
(6.67062 -2.13206 -8.65539e-23)
(5.90867 2.7355 1.17549e-18)
(5.91281 2.87323 -5.22908e-19)
(6.64574 -1.02973 0)
(6.63086 -1.11365 3.16392e-20)
(6.55954 -1.15182 -1.05285e-19)
(7.28232 -4.51471 1.70077e-19)
(3.36491 -1.50962 -5.60636e-18)
(6.41456 2.72223 -1.02934e-19)
(6.29452 2.82955 4.77937e-19)
(2.29759 -0.988383 -1.3066e-17)
(6.19076 2.73443 1.39637e-18)
(5.92944 -3.78895 0)
(6.26379 2.96895 6.01885e-20)
(6.22393 3.07801 -4.6039e-20)
(7.0775 -4.42858 -6.66853e-19)
(5.15747 -0.397361 -1.16888e-18)
(6.3365 3.24311 0)
(6.30337 3.30129 8.99694e-21)
(4.12275 0.235048 -1.28506e-18)
(3.47501 -2.72199 1.34028e-18)
(7.78816 0.560335 5.36519e-19)
(3.99245 1.94706 -2.44977e-20)
(5.90223 -4.25474 7.789e-19)
(5.80899 -4.24189 -1.75288e-18)
(6.41998 2.5696 -2.74219e-20)
(6.28579 -0.537402 0)
(4.1974 -0.161509 -1.65492e-19)
(4.23358 -0.268852 0)
(4.18133 -0.253252 1.55409e-19)
(4.24551 1.46611 -1.76683e-18)
(6.39009 -1.65069 -1.46801e-19)
(6.50344 -1.60731 0)
(6.69882 -1.58401 1.26992e-20)
(6.71326 -1.50054 -2.98213e-20)
(7.24561 -1.54031 8.02069e-20)
(7.31719 -1.48851 -2.79915e-19)
(8.00247 -0.804916 -1.58335e-19)
(7.92563 -0.812799 1.57938e-19)
(8.03115 -0.707666 0)
(4.33967 0.669518 -4.51248e-21)
(4.28792 0.626844 -2.19344e-18)
(3.89183 0.439103 5.43355e-18)
(6.74357 -1.25402 7.27533e-21)
(6.71945 -1.34401 0)
(7.00315 -4.4451 3.57813e-19)
(7.04795 -4.44266 -3.48682e-19)
(6.47936 -4.25987 -4.10159e-18)
(6.50472 -4.30133 2.06044e-18)
(5.66215 -4.19565 -8.73123e-19)
(5.36945 -3.98431 -7.859e-19)
(7.71237 0.839558 4.98226e-19)
(6.16345 -3.79585 -1.7095e-18)
(6.04972 -3.75536 1.4686e-18)
(6.57709 -0.648865 -3.72714e-17)
(6.61355 -0.735956 -2.58319e-17)
(3.94781 -2.75069 4.48485e-20)
(3.87464 -2.74828 0)
(8.14931 -1.0429 8.12329e-19)