/*--------------------------------*- C++ -*----------------------------------*\
  =========                 |
  \\      /  F ield         | OpenFOAM: The Open Source CFD Toolbox
   \\    /   O peration     | Website:  https://openfoam.org
    \\  /    A nd           | Version:  6
     \\/     M anipulation  |
\*---------------------------------------------------------------------------*/
FoamFile
{
    version     2.0;
    format      ascii;
    class       volScalarField;
    location    "1800";
    object      nut;
}
// * * * * * * * * * * * * * * * * * * * * * * * * * * * * * * * * * * * * * //

dimensions      [0 2 -1 0 0 0 0];

internalField   nonuniform List<scalar> 
29884
(
0.276337
0.225624
0.122062
0.155995
0.15636
0.129646
0.19454
0.263904
0.213439
0.141145
0.153475
0.141699
0.15303
0.287411
0.280042
0.191816
0.28735
0.26622
0.279513
0.172451
0.278021
0.118572
0.142525
0.140649
0.144303
0.155028
0.194393
0.219173
0.150191
0.253474
0.14866
0.162942
0.195304
0.185293
0.143752
0.147362
0.249419
0.166602
0.179344
0.187978
0.231652
0.18485
0.176331
0.200848
0.183851
0.166943
0.175635
0.17644
0.136633
0.170883
0.167684
0.174262
0.192915
0.275211
0.263296
0.267612
0.187072
0.284236
0.262145
0.266547
0.198596
0.190474
0.135278
0.171051
0.166635
0.172806
0.28048
0.204341
0.302647
0.211426
0.141248
0.149598
0.143864
0.10938
0.317997
0.280951
0.234127
0.231222
0.225939
0.21158
0.180453
0.197655
0.113439
0.142316
0.118738
0.097359
0.148765
0.156991
0.139622
0.0721917
0.145054
0.15688
0.100628
0.0637207
0.151754
0.00038777
0.139829
0.139902
0.149681
0.0663534
0.139777
0.139243
0.169896
0.177396
0.153544
0.196429
0.0782582
0.0767227
0.153792
0.138984
0.162763
8.7826e-05
0.135951
0.11883
0.141913
0.142056
0.149604
0.111932
0.147764
0.136979
0.139772
0.141132
0.161418
0.140069
0.136906
0.262134
0.225336
0.203722
0.301039
0.147688
0.143026
0.147274
0.254193
0.237557
0.128865
0.144165
0.165758
0.152226
0.163731
0.163888
0.155648
0.162017
0.173231
0.157311
0.170914
0.173986
0.160475
0.165441
0.178562
0.173868
0.171483
0.0948676
0.0832638
0.183665
0.249004
0.215701
0.199091
0.175248
0.229557
0.201382
0.189256
0.156102
0.154289
0.172928
0.00028727
0.00028397
0.204643
0.160433
0.139505
0.139492
0.21218
0.139208
0.139042
0.114481
0.117373
0.15183
0.144039
0.18896
0.142641
0.156023
0.145707
0.128999
0.131198
0.135183
0.117524
0.132585
0.139601
0.139234
0.155562
0.150284
0.156005
0.14153
0.136695
0.143535
0.146337
0.146728
0.141195
0.146816
0.151877
0.149793
0.218064
0.177393
0.15369
0.142321
0.150032
0.136293
0.144736
0.128294
0.139499
0.185251
0.174654
0.215561
0.21922
0.194851
0.257707
0.0435287
0.101033
0.0374516
0.112349
0.0392208
0.0372237
0.0422328
0.13749
0.119752
0.0856046
0.0348595
0.040862
0.0543082
0.00642928
0.0451216
0.0460159
0.0377083
0.0479892
0.0355435
0.0375301
0.0467562
0.0452744
0.138046
0.145685
0.0170721
0.0252176
0.000660593
0.0423354
0.0250966
0.03537
0.12347
0.0400351
0.0380688
0.0942094
0.0640641
0.0393433
0.0784487
0.114626
0.111407
0.0374418
0.0373771
0.0445089
0.0418549
0.0806443
0.0858178
0.0595886
0.102895
0.0170982
0.000937447
0.082645
0.0337318
0.041616
0.122837
0.122499
0.0336563
0.0874561
0.0888847
0.0474274
0.0301509
0.0269844
0.0769658
0.0717226
0.0544284
0.0578335
0.0215795
0.152049
0.0459531
0.129591
0.0906208
0.138266
0.116831
0.116595
0.0271049
0.00022927
0.137792
0.0488657
0.0463855
0.0472881
0.0193433
0.0336612
0.0340656
0.108595
0.0461753
0.0460151
0.0275345
0.0559716
0.0415233
0.0429672
0.0418597
0.05389
0.0599455
0.0756465
0.131597
0.11124
0.112162
0.112884
0.110399
0.0422366
0.0134491
0.0145737
0.0360646
0.0386181
0.0431388
0.0450282
0.0422936
0.0536993
0.0639513
0.0586879
0.0588489
0.0374134
0.089741
0.0411457
0.0422711
0.0444057
0.0392186
0.111315
0.112843
0.112981
0.111395
0.0419448
0.0405019
0.137695
0.0793214
0.0479334
0.0461669
0.0420931
0.121315
0.0424484
0.111789
0.135754
0.0467638
0.0507178
0.0490293
0.0484035
0.0724007
0.0716045
0.0655199
0.0874234
0.0883677
0.0860287
0.0627776
0.0572671
0.0543648
0.0555139
0.0578737
0.0635938
0.0739525
0.132653
0.121322
0.11005
0.110234
0.120637
0.133088
0.000469716
0.040623
0.0420578
0.0404487
0.137073
0.144398
0.129518
0.100235
0.0956937
0.0427875
0.034392
0.0359495
0.0334111
0.117221
0.126875
0.122695
0.131593
0.030858
0.0348144
0.0326979
0.0327593
0.0892344
0.0854611
0.0837692
0.0913551
0.037043
0.0382173
0.0389435
0.0437233
0.0425086
0.0341574
0.0291862
0.0834082
0.0711084
0.0925104
0.0850048
0.088358
0.0899276
0.0200347
0.137256
0.138483
0.139458
0.138713
0.0405969
0.0423166
0.0478931
0.0471488
0.0451575
0.0597999
0.0602029
0.0341283
0.0388861
0.039416
0.0135693
0.0535685
0.0569881
0.0506813
0.0719991
0.0796451
0.0740664
0.0765702
0.0503382
0.0555879
0.053394
0.0524447
0.13006
0.0645528
0.0621107
0.0667305
0.0605487
0.0399475
0.0417647
0.0391145
0.0409331
0.0406686
0.0392267
0.151349
0.150021
0.135427
0.042069
0.0404948
0.0420305
0.03992
0.122065
0.137933
0.0757042
0.085305
0.130626
0.145338
0.139461
0.130516
0.152772
0.00588535
0.124289
0.125702
0.0758816
0.0310335
0.0324743
0.033723
0.0303143
0.0818829
0.0907624
0.0867663
0.0863311
0.137945
0.13776
0.138014
0.139672
0.139611
0.165869
0.151226
0.157616
0.159019
0.140589
0.144576
0.142496
0.142437
0.0247051
0.0232392
0.022182
0.025084
0.104238
0.103096
0.106715
0.0449892
0.0421858
0.0422238
0.0446858
0.136953
0.134702
0.136208
0.000661387
0.00439523
0.138674
0.0107406
0.119885
0.139543
0.138718
0.000924551
0.00127294
0.139034
0.139055
0.139226
0.138868
0.0574717
0.138506
0.12078
0.000257859
0.000310352
0.137316
0.0354969
0.229789
0.13932
0.25589
0.126325
0.140695
0.138866
0.000647774
0.141476
0.134205
0.140304
0.13779
0.0434757
0.121549
0.137967
0.123267
0.134833
0.144592
0.129661
0.124467
0.170473
0.210884
0.240726
0.103819
0.103407
0.139053
0.139033
0.13975
0.139592
0.130155
0.00573356
0.128533
0.121842
0.104498
0.139124
0.112641
0.139114
0.139095
0.139063
0.00272371
0.138412
0.138627
0.0424268
0.0487438
0.0485552
0.122645
0.243803
0.209493
0.122737
0.118836
0.123355
0.102042
0.107274
0.127679
0.128429
0.184426
0.204848
0.12851
0.252057
0.138238
0.138339
0.253181
0.207083
0.000861488
0.126615
0.261393
0.0963049
0.141821
0.142992
0.000365494
0.0763254
0.0700078
0.137488
0.139576
0.139368
0.107733
0.121088
0.131274
0.129552
0.0399906
0.0399051
0.144052
0.14148
0.145012
0.139527
0.139269
0.00100551
0.138929
0.137339
0.136088
0.13781
0.138069
0.138289
0.183992
0.133349
0.136268
0.130153
0.132755
0.160405
0.166214
0.199388
0.177087
0.121031
0.137556
0.133481
0.141498
0.13405
0.125002
0.145768
0.159889
0.15005
0.146692
0.123366
0.11951
0.0567988
0.0522284
0.048319
0.0388711
0.139018
0.140662
0.142134
0.253617
0.194642
0.0872577
0.0935596
0.200826
0.172029
0.196867
0.145545
0.159307
0.153785
0.16453
0.234716
0.189103
0.181589
0.0414063
0.0414513
0.138768
0.138572
0.139563
0.138294
0.157142
0.11145
0.114783
0.118434
0.137582
0.13819
0.137561
0.137647
0.137239
0.139675
0.162108
0.153543
0.132964
0.139655
0.142589
0.14525
0.135694
0.136284
0.212129
0.267776
0.237943
0.109304
0.113629
0.116089
0.00427756
0.00467419
0.136158
0.133532
0.0654415
0.0612482
0.165913
0.168768
0.162047
0.0319792
0.0303122
0.0573522
0.0568572
0.0379417
0.0387892
0.0437272
0.0776739
0.0733169
0.0758942
0.0293303
0.0658305
0.00608447
0.0423279
0.0179563
0.0608949
0.0348072
0.00648325
0.0471532
0.0346415
0.00781695
0.0065126
0.00694257
0.0897156
0.0900545
0.0720999
0.0627164
0.0630503
0.077215
0.0508282
0.0499524
0.016202
0.075541
0.0747577
0.0540583
0.0558173
0.0557827
0.0621125
0.0609955
0.0612523
0.028823
0.0755632
0.075399
0.0105521
0.00282162
0.0351497
0.0369667
0.0329479
0.0942175
0.094755
0.0256597
0.0332485
0.0267137
0.0818083
0.0770217
0.0645792
0.0103653
0.0461282
0.0463153
0.0669769
0.0527765
0.0554489
0.0614339
0.0593395
0.0512487
0.09448
0.0641543
0.0325109
0.0652738
0.01323
0.01583
0.106489
0.0977977
0.0255528
0.0674559
0.0238528
0.0457286
0.0154585
0.0605834
0.0626582
0.0926153
0.00155784
0.0454267
0.071218
0.0722216
0.0465742
0.0455406
0.0748151
0.047759
0.0481492
0.0463337
0.00153968
0.0676144
0.0364862
0.037221
0.0221055
0.0674927
0.0673525
0.0406692
0.0423359
0.0312637
0.0318301
0.063817
0.0468683
0.0381761
0.0764712
0.073592
0.104597
0.0445188
0.00840957
0.0647738
0.0647158
0.0354277
0.0523292
0.0546029
0.0107764
0.00164239
0.047474
0.0347094
0.0639274
0.0636165
0.0413617
0.0387525
0.0510379
0.0516329
0.0373394
0.0092754
0.0472647
0.0386613
0.0383004
0.0293205
0.0575835
0.035396
0.00143104
0.0248877
0.0888771
0.00570882
0.00574362
0.0960475
0.096084
0.118778
0.0566768
0.0723608
0.00948675
0.0778508
0.066132
0.0716561
0.0445904
0.0336386
0.0590152
0.0381788
0.0362159
0.079492
0.00674989
0.0133695
0.051855
0.0641592
0.0704819
0.046791
0.0493443
0.0555228
0.0775187
0.0570385
0.0566308
0.0500429
0.0713948
0.0669594
0.0653261
0.0557419
0.0532461
0.0401855
0.0363628
0.0349479
0.0342846
0.0535366
0.0690457
0.0340368
0.0430475
0.0414347
0.0649683
0.0829346
0.0473082
0.0348615
0.0617283
0.0627357
0.0456642
0.136199
0.107654
0.0564627
0.0572739
0.0554285
0.0851882
0.0371741
0.068121
0.0429208
0.0761429
0.0760001
0.0345569
0.0623112
0.0233174
0.0823413
0.0404441
0.0619912
0.0629028
0.0435943
0.0561401
0.0557208
0.040109
0.135316
0.0874808
0.0172195
0.0168314
0.0517373
0.0699648
0.0689421
0.0837709
0.078745
0.0770572
0.0325078
0.0408559
0.0384117
0.0104371
0.0533806
0.0535743
0.0546151
0.0742862
0.0745164
0.0728205
0.0727024
0.0521205
0.0514648
0.0291693
0.0637532
0.0648419
0.0639369
0.0416104
0.0708499
0.0139735
0.0564849
0.0379105
0.0349963
0.0192509
0.0664958
0.0486606
0.0851373
0.0860141
0.0339636
0.0371965
0.0669956
0.0549854
0.0251275
0.0869155
0.0872228
0.0367429
0.0603701
0.0376734
0.00507216
0.125959
0.124269
0.0659584
0.0726011
0.073639
0.0821246
0.083146
0.0677259
0.103592
0.0198548
0.0234024
0.0765695
0.0795332
0.0733881
0.0596176
0.0660346
0.0620699
0.0633517
0.0418732
0.0398091
0.0896337
0.0900436
0.0536632
0.0310665
0.0309389
0.064245
0.0646747
0.0161915
0.0108097
0.00775688
0.0572917
0.044645
0.066844
0.06772
0.00479184
0.00419376
0.0631638
0.0629793
0.0639389
0.0460597
0.0437476
0.0420143
0.0512146
0.0669619
0.0360128
0.0356154
0.0375349
0.016526
0.0173393
0.105486
0.0644849
0.0186884
0.0178391
0.0691093
0.0687992
0.0470125
0.0467861
0.0473448
0.0517885
0.0513618
0.0044895
0.0419332
0.0584188
0.1059
0.0119429
0.0118496
0.0171014
0.0344116
0.0422561
0.0394802
0.075168
0.035234
0.0944228
0.0957311
0.11575
0.110043
0.0487374
0.0343045
0.0350282
0.0387539
0.0401012
0.10069
0.100126
0.0989032
0.0386737
0.0419675
0.0416549
0.011121
0.0164115
0.0628476
0.0228839
0.0235336
0.0522188
0.0531672
0.0909797
0.0506315
0.0514483
0.0428248
0.0376357
0.0667185
0.0669622
0.0661659
0.0675412
0.0683053
0.0518419
0.070536
0.00683614
0.0204192
0.0235539
0.0146765
0.0149849
0.0497295
0.0539769
0.0382959
0.0401918
0.0580055
0.0580188
0.0579473
0.0587053
0.0570618
0.048795
0.0474697
0.0335975
0.0362196
0.0342304
0.0661699
0.0666562
0.0654724
0.00420043
0.0653732
0.106197
0.103613
0.0654259
0.0646198
0.0655792
0.063838
0.0649556
0.0399344
0.0419938
0.041298
0.0405587
0.0584431
0.0541562
0.0425986
0.0951213
0.0946148
0.0944424
0.0604795
0.0886153
0.0300238
0.0225692
0.019842
0.031144
0.0292368
0.0333529
0.105553
0.0544232
0.0550514
0.0745669
0.107033
0.104151
0.0598202
0.0967196
0.0504754
0.0490374
0.0501857
0.0437606
0.042424
0.044629
0.0853405
0.0452354
0.071791
0.0719262
0.104619
0.0433764
0.0774527
0.0772199
0.0773583
0.0380471
0.000963355
0.0456508
0.0489817
0.0475169
0.0121664
0.000404601
0.102221
0.0525002
0.10793
0.0493754
0.0502894
0.0782572
0.0574063
0.0796205
0.112556
0.0156019
0.0764106
0.0760641
0.078774
0.0326875
0.101232
0.0999134
0.102171
0.0658997
0.0664495
0.0006711
0.0507
0.0496284
0.100187
0.102906
0.0981734
0.000769356
0.00079973
0.0922761
0.0238019
0.0203467
0.0472399
0.0493098
0.048689
0.0478041
0.0879311
0.0301283
0.0291351
0.0437103
0.000609118
0.0711685
0.0714393
0.0805552
0.0793214
0.0645022
0.0170877
0.0645285
0.063103
0.0984122
0.0986899
0.0169041
0.0861997
0.0868743
0.0868617
0.0603767
0.0603798
0.0741067
0.0873019
0.0609518
0.0544796
0.0019894
0.0435758
0.0610693
0.000569488
0.0358102
0.0918776
0.0546908
0.00528433
0.0486464
0.0472135
0.0610905
0.062016
0.0876973
0.0836973
0.0590869
0.0599306
0.0563546
0.0777703
0.0789481
0.0773144
0.0771918
0.0766582
0.000950201
0.0240097
0.000507085
0.0571227
0.0051075
0.135997
0.13621
0.136314
0.135976
0.0658721
0.0557693
0.0557996
0.137799
0.13813
0.057323
0.0788465
0.0772627
0.0770856
0.0451476
0.0607346
0.0677615
0.069491
0.0936065
0.0897778
0.0384397
0.0361273
0.0366356
0.000537206
0.0344599
0.035467
0.0363234
0.0338019
0.0763536
0.0764102
0.0327463
0.0937206
0.0952428
0.0771709
0.043183
0.0435249
0.041512
0.0445442
0.0428013
0.0458526
0.028012
0.0273649
0.128
0.0456354
0.0377046
0.0374102
0.0653667
0.0661665
0.0927636
0.0927867
0.0935194
0.0920688
0.0729029
0.072824
0.0625374
0.0452204
0.0453571
0.0450533
0.098507
0.0962823
0.000315284
0.0445676
0.0453404
0.0160395
0.0137219
0.00044099
0.000648203
0.000621062
0.0399758
0.0393799
0.00825839
0.00862761
0.0934755
0.0756965
0.0854584
0.045935
0.0393325
0.0160119
0.015412
0.0174855
0.0446495
0.0437387
0.0448558
0.0438952
0.000445725
0.00076587
0.000785745
0.00116019
0.00939458
0.012615
0.0347336
0.0336936
0.00084936
0.0444671
0.0259631
0.0922723
0.0920446
0.0945829
0.0912975
0.0919818
0.091008
0.105363
0.106912
0.104248
0.102531
0.0725791
0.0399162
0.0417451
0.0395384
0.0529255
0.0535857
0.0511864
0.116367
0.105292
0.110278
0.0945855
0.0954873
0.0955597
0.0746001
0.0709232
0.0709462
0.0701566
0.0680922
0.0723307
0.0483437
0.0697793
0.0690992
0.0699226
0.000413201
0.000693284
0.0896013
0.090483
0.090011
0.0900395
0.0360501
0.0666535
0.0670291
0.0659067
0.0918704
0.0931694
0.0935916
0.0913186
0.0576053
0.0580478
0.0566078
0.156568
0.039477
0.0440386
0.0443225
0.0437396
0.0447229
0.0785051
0.0844973
0.0614515
0.0621919
0.0665455
0.0655111
0.0258356
0.128407
0.0346121
0.0331631
0.105594
0.000363705
0.0392742
0.0465832
0.0669092
0.0673636
0.0664657
0.0837334
0.0847179
0.00796619
0.0453297
0.0448517
0.0466627
0.0311066
0.0324612
0.0290224
0.0347121
0.0368382
0.0362636
0.00471592
0.00453612
0.048589
0.0493204
0.0634309
0.063148
0.0642612
0.0003387
0.0572233
0.000616636
0.0650446
0.0445447
0.0432726
0.0443754
0.0430332
0.00162962
0.0478578
0.0490024
0.0484577
0.068374
0.0496463
0.0588314
0.0571633
0.0424932
0.0422053
0.0415111
0.0431639
0.0429334
0.0398765
0.0418983
0.040575
0.0406658
0.03898
0.040668
0.0425334
0.00107297
0.00427553
0.0902105
0.0905857
0.0898239
0.0908956
0.0551355
0.0557104
0.0560875
0.0356209
0.0426517
0.042658
0.0441658
0.0613924
0.0606936
0.061076
0.0950719
0.097024
0.0957118
0.0970305
0.098316
0.0479258
0.0462172
0.0463272
0.0477212
0.103313
0.105092
0.104419
0.103845
0.0305549
0.0294083
0.0320515
0.0533082
0.0522116
0.0655115
0.0655211
0.0648709
0.0422597
0.0405554
0.0705371
0.0720777
0.120659
0.119069
0.119366
0.120435
0.0818988
0.0784429
0.0795377
0.0416364
0.0433244
0.0305458
0.0284013
0.0280359
0.0170822
0.0585573
0.0574872
0.0604687
0.0497197
0.0503911
0.0388287
0.0864328
0.0883743
0.0881748
0.0864565
0.00108992
0.0539915
0.0552204
0.0543246
0.0548545
0.13704
0.137199
0.0554958
0.0537966
0.054481
0.0548012
0.0524088
0.0526368
0.051145
0.0249737
0.0271557
0.0244196
0.047537
0.0488779
0.0475568
0.0489319
0.0527954
0.0686791
0.0590561
0.044119
0.0434299
0.0443771
0.0430714
0.00756283
0.0686416
0.00735748
0.00724874
0.092849
0.0921295
0.0921948
0.0927404
0.0637873
0.0496785
0.0491368
0.06507
0.0647312
0.0650367
0.101501
0.0859408
0.0457847
0.0463561
0.0452366
0.0381358
0.0350081
0.0362678
0.0367333
0.0371131
0.0769364
0.0763198
0.0106342
0.0130011
0.0526541
0.0516139
0.0518149
0.00117391
0.0521724
0.0673659
0.0744466
0.0739179
0.0758581
0.0620514
0.0388063
0.0372253
0.0394811
0.11104
0.108418
0.109812
0.0456876
0.0454718
0.128523
0.129575
0.03505
0.03595
0.0367702
0.0991521
0.0954351
0.0894188
0.0123004
0.0148983
0.0136646
0.011121
0.0109354
0.0118792
0.00982878
0.0152505
0.0514277
0.059151
0.0601973
0.0557921
0.0554245
0.0567761
0.0638374
0.063196
0.048145
0.047966
0.0924688
0.0929733
0.0424518
0.0441717
0.104441
0.118939
0.0967444
0.097574
0.0837465
0.0861012
0.0822982
0.0859427
0.087833
0.0868683
0.0231517
0.0277307
0.0601453
0.0588488
0.059338
0.0596889
0.0740469
0.0431008
0.0437893
0.0445011
0.0449075
0.044276
0.0461989
0.0428737
0.000842733
0.046631
0.0470387
0.0479859
0.074026
0.0698207
0.0389939
0.0380604
0.0654556
0.0647379
0.0656677
0.0762117
0.0824207
0.0478757
0.0475916
0.047945
0.047624
0.0334234
0.0926041
0.0915792
0.0414807
0.040867
0.0419228
0.0403623
0.0618612
0.0624957
0.0612385
0.00608848
0.00663481
0.00527931
0.0830223
0.0845945
0.0805495
0.0408677
0.039703
0.0463338
0.0445399
0.0514094
0.052075
0.0522395
0.0631689
0.0412044
0.0424696
0.0426367
0.0799089
0.0422163
0.0405754
0.0411898
0.0416368
0.111262
0.109383
0.109522
0.11103
0.0723052
0.0407879
0.0419253
0.0407193
0.0423589
0.0642509
0.092733
0.0923713
0.0934199
0.091782
0.0910955
0.0920648
0.0925241
0.0907725
0.0347343
0.0492709
0.048795
0.0484392
0.0486294
0.000589147
0.00629994
0.0709564
0.070447
0.0585175
0.0592938
0.0594504
0.0588014
0.0601954
0.0465598
0.0458024
0.00675831
0.00813967
0.0560662
0.05459
0.0556111
0.0551446
0.0743534
0.0888742
0.0879188
0.0884984
0.00817144
0.0543655
0.0534597
0.054689
0.0530568
0.0408438
0.0420505
0.0409461
0.0418316
0.0847655
0.0844186
0.0837662
0.0769639
0.0220616
0.0213139
0.0209086
0.0223096
0.0283265
0.0294814
0.0483649
0.0651039
0.0651819
0.0652333
0.0448977
0.0467526
0.0460585
0.0455669
0.0764173
0.0767902
0.0552624
0.0562528
0.056185
0.0552541
0.0395931
0.0447749
0.0446682
0.0412634
0.0245192
0.0218852
0.0421946
0.0434317
0.0725992
0.0720469
0.07273
0.0988099
0.0981684
0.0978074
0.0328647
0.0315596
0.0323166
0.057384
0.0578371
0.0583217
0.0568829
0.034904
0.0435084
0.0430054
0.0442721
0.042189
0.00437079
0.0371166
0.0331358
0.036291
0.0573873
0.0582762
0.0582981
0.0572851
0.128164
0.0899164
0.0891869
0.089217
0.0898233
0.0588525
0.0598198
0.0587259
0.0357861
0.0918274
0.091199
0.0918431
0.0563971
0.0579631
0.0287798
0.0316718
0.0303648
0.0451211
0.0443097
0.0453362
0.0690484
0.036895
0.0751493
0.0507959
0.046696
0.0887548
0.0880738
0.0914063
0.00980181
0.00824572
0.0109149
0.0606109
0.0446772
0.0455704
0.0439788
0.0308889
0.0301016
0.0877861
0.0854058
0.0860663
0.0872425
0.0915197
0.0909886
0.0439104
0.0458639
0.0910179
0.0893086
0.0910718
0.0890214
0.123962
0.124377
0.0400658
0.0897619
0.0895805
0.0894785
0.0735507
0.0745164
0.0732878
0.0164618
0.0319691
0.0314397
0.0332895
0.0303573
0.0433219
0.0454003
0.0444333
0.0442999
0.0473075
0.0455276
0.0464503
0.110517
0.0941547
0.109965
0.0986008
0.0242317
0.0804981
0.0795638
0.114115
0.115726
0.046311
0.0454029
0.0451352
0.0464589
0.0910863
0.0903783
0.120507
0.118698
0.0382669
0.0596896
0.0604895
0.0608354
0.0237588
0.0213461
0.0231159
0.0213515
0.0286547
0.0314515
0.0436485
0.0443406
0.0436775
0.0287747
0.0249715
0.027278
0.0268255
0.0579446
0.0569169
0.108886
0.0991045
0.0377519
0.0397667
0.0392085
0.0378792
0.0614845
0.0175887
0.0186976
0.0200163
0.0167336
0.107817
0.106063
0.108742
0.0337325
0.0352927
0.0352066
0.0357327
0.0346695
0.0362111
0.0746026
0.0776358
0.0234933
0.0244011
0.0956676
0.065169
0.0903041
0.0891116
0.0829157
0.00387166
0.0684477
0.0677535
0.068222
0.0459801
0.0153069
0.0364064
0.0813087
0.071818
0.0671579
0.0896986
0.0791406
0.0799885
0.0790865
0.0533426
0.0548563
0.000272452
0.0546577
0.0399472
0.114996
0.113064
0.113669
0.114429
0.0597657
0.0608668
0.060597
0.060007
0.102856
0.103835
0.102158
0.104407
0.0376669
0.0382882
0.038796
0.0370849
0.0642079
0.0637001
0.064332
0.063507
0.0439748
0.0447065
0.042474
0.0300926
0.0353794
0.0444255
0.0458847
0.0446919
0.123606
0.12242
0.0555545
0.0266871
0.0944712
0.0950095
0.0954126
0.0315555
0.0675352
0.066325
0.0649619
0.0686913
0.0656009
0.0629929
0.062011
0.0623296
0.0626825
0.0481907
0.0447966
0.0470299
0.0457051
0.0884779
0.0880763
0.0887385
0.0877814
0.0763081
0.0747211
0.0751602
0.0758534
0.066837
0.066888
0.0671925
0.066497
0.0325521
0.0304786
0.0320155
0.0308933
0.0422389
0.041058
0.0433066
0.0419802
0.0416042
0.0431745
0.114508
0.117273
0.115725
0.0729141
0.0447178
0.0435427
0.0439396
0.0410899
0.0380964
0.0404373
0.0377955
0.0386457
0.0369252
0.0376029
0.0249918
0.0636149
0.0631017
0.000257763
0.0477277
0.0492523
0.048047
0.0488647
0.0664144
0.0514792
0.0609025
0.0399782
0.00424838
0.00443867
0.00425465
0.0424008
0.0430235
0.127943
0.0395783
0.0390397
0.0553539
0.0543153
0.0552783
0.0429635
0.0433558
0.0431247
0.0436039
0.047196
0.0479121
0.0474177
0.0584242
0.0602475
0.0419732
0.0438638
0.042733
0.000225551
0.0426065
0.0429047
0.109993
0.108488
0.0681504
0.0694524
0.066656
0.070771
0.0307281
0.0338103
0.034695
0.0370419
0.118772
0.117621
0.0473406
0.047116
0.0480255
0.0464661
0.0409429
0.0406594
0.0392494
0.110666
0.108108
0.109249
0.109455
0.0857152
0.0848775
0.0860387
0.0844085
0.0829801
0.0843491
0.0842238
0.0830052
0.0758631
0.0762517
0.0749631
0.0329381
0.0336275
0.0338788
0.0325692
0.0323339
0.0337311
0.111423
0.0184548
0.0210411
0.0204392
0.00111187
0.0432208
0.0422428
0.0425058
0.0748487
0.0731424
0.0811257
0.0820023
0.0807843
0.0822473
0.0234775
0.0211643
0.0866706
0.0864048
0.0858757
0.0871686
0.116639
0.11761
0.11807
0.116109
0.0446532
0.045474
0.0440567
0.0461814
0.0488589
0.0490212
0.0487751
0.0419155
0.0429519
0.04322
0.0415207
0.0754778
0.0759473
0.0752809
0.0539661
0.0884127
0.0876476
0.0885272
0.087602
0.0242881
0.0291044
0.0140683
0.0113032
0.0580681
0.00461996
0.00329522
0.00302297
0.0291892
0.0355263
0.0115196
0.000628493
0.000856365
0.000596026
0.000292394
0.0285815
0.000383122
0.000444907
0.0104096
0.0102672
0.0363481
0.0112921
0.0103291
0.138816
0.0169537
0.128892
0.0143728
0.0304627
0.0304559
0.00737585
0.000521845
0.0814913
0.0139971
0.00597059
0.00631414
0.00985876
0.10388
0.13705
0.0159867
0.0170524
0.0297446
0.00284193
0.0893178
0.137259
0.0599083
0.122625
0.11919
0.0495452
0.003365
0.0150033
0.000394802
0.000589816
0.000562781
0.024919
0.0233989
0.00682974
0.0252505
0.002765
0.00324763
0.0231627
0.00062438
0.0563304
0.0302937
0.138666
0.138545
0.000464488
0.0227143
0.0217149
0.0128848
0.00808017
0.0219411
0.0215271
0.0223459
0.047462
0.0492005
0.00678368
0.0503796
0.137523
0.137178
0.0211928
0.000561577
0.00515882
0.00416578
0.0476704
0.0121323
0.0184987
0.000492407
0.0194391
0.023793
0.130158
0.00311723
0.0153957
0.013329
0.13839
0.114263
0.00427488
0.0803303
0.0379897
0.00778058
0.135175
0.0244272
0.00232729
0.0353261
0.0342295
0.00895998
0.0204317
0.0212591
0.0230681
0.0186912
0.0265065
0.0251632
0.0260634
0.0366438
0.00175422
0.0198375
0.0349463
0.13615
0.0174528
0.118979
0.0152423
0.128789
0.000623395
0.0221892
0.0211193
0.0221361
0.0622574
0.0269706
0.0278427
0.00587235
0.000369817
0.00143611
0.00269289
0.0750529
0.0706965
0.0176935
0.028638
0.00538175
0.00670874
0.00259207
0.0296177
0.031286
0.150761
0.00218315
0.137218
0.137638
0.0539396
0.0154472
0.0352248
0.0568733
0.0560197
0.0346597
0.0331944
0.0347993
0.0283707
0.00829346
0.00408607
0.0371671
0.0156813
0.021921
0.0295066
0.0300083
0.0282127
0.00522348
0.00822754
0.0457043
0.0451237
0.0304029
0.0280267
0.028238
0.0352518
0.0364004
0.0515313
0.00388186
0.00397054
0.0468967
0.138572
0.00393154
0.00517147
0.00462888
0.00314893
0.00424234
0.00427443
0.00560646
0.018023
0.00385743
0.00440161
0.00584837
0.0042792
0.00579591
0.0305992
0.0299115
0.0306829
0.00449863
0.00623097
0.035728
0.000555169
0.000879002
0.0308556
0.00300088
0.0196044
0.0176272
0.0243491
0.0232965
0.0076871
0.00866092
0.00554152
0.00720111
0.123333
0.00503283
0.0785195
0.0776099
0.0773911
0.0381919
0.0229768
0.00630341
0.0203625
0.00586562
0.131238
0.0253562
0.0025496
0.0118905
0.0111446
0.0136086
0.0100895
0.00685419
0.140006
0.0224494
0.0242434
0.00412719
0.003291
0.0585495
0.0685421
0.154694
0.14879
0.00744164
0.0182389
0.138782
0.0222363
0.0223025
0.000572976
0.00785079
0.0141965
0.117657
0.120184
0.00888435
0.0507185
0.00955983
0.00829641
0.0094388
0.00440198
0.04235
0.0444608
0.0460948
0.00122057
0.0352663
0.130836
0.128466
0.114982
0.0552208
0.0190035
0.0379673
0.0322773
0.0668424
0.139189
0.139066
0.022607
0.137503
0.00173794
0.00218457
0.00917833
0.025275
0.0116425
0.0410313
0.0411069
0.0396119
0.0396871
0.00444055
0.00276448
0.00196154
0.159156
0.0515825
0.0116904
0.120971
0.129663
0.130205
0.0359484
0.0721037
0.0700656
0.166425
0.14833
0.00142257
0.00820996
0.0587322
0.0577231
0.00661826
0.00605396
0.0307517
0.030009
0.0817023
0.0797935
0.0518492
0.0539451
0.0419142
0.0141785
0.0131342
0.0579091
0.0366614
0.0363562
0.0301589
0.0288028
0.0356567
0.0166931
0.00478766
0.0250072
0.00482428
0.138576
0.0106706
0.0119178
0.0240117
0.0379616
0.0235202
0.0238489
0.10114
0.0941935
0.10949
0.0241253
0.05472
0.014917
0.138152
0.033544
0.00175361
0.0374173
0.00367691
0.00379292
0.137749
0.0305484
0.0304256
0.015468
0.137731
0.09103
0.0983509
0.0220533
0.0381257
0.0387014
0.0785693
0.0794097
0.0360547
0.0333175
0.0362064
0.0340916
0.035745
0.0714853
0.0629253
0.136079
0.136602
0.0593615
0.0592086
0.0676619
0.00723126
0.00620235
0.0708679
0.0166094
0.136807
0.0639179
0.0659879
0.0678629
0.0382271
0.0367067
0.0378848
0.112524
0.147135
0.139362
0.0693299
0.068058
0.0687013
0.122468
0.00598293
0.0248963
0.0205419
0.015431
0.0151029
0.0988332
0.024779
0.0312954
0.0341539
0.0197041
0.170511
0.0130235
0.0387808
0.0142404
0.0186312
0.0104778
0.014078
0.0144615
0.121712
0.124151
0.123091
0.0275977
0.0280476
0.0117084
0.0684225
0.0152685
0.0145959
0.0329832
0.0295631
0.0291005
0.0373228
0.0720276
0.0294394
0.0311123
0.133038
0.127031
0.00185625
0.00242263
0.138694
0.016368
0.00817209
0.0125177
0.119035
0.117534
0.138558
0.110019
0.138666
0.132961
0.132198
0.0202758
0.0235911
0.12608
0.126974
0.124867
0.125482
0.039508
0.0374413
0.0962064
0.0984026
0.125748
0.12354
0.00321968
0.118862
0.117762
0.0308411
0.138914
0.138744
0.138689
0.0891534
0.0850244
0.137673
0.139693
0.138333
0.0546262
0.0249754
0.0265639
0.0265038
0.0422562
0.0419216
0.0424687
0.15344
0.154647
0.0563199
0.0248645
0.0260355
0.157895
0.155376
0.0503102
0.0507932
0.0286133
0.0314838
0.000406565
0.00264818
0.0515138
0.00847524
0.0100878
0.0106952
0.0763753
0.000860069
0.00131154
0.0548057
0.0554101
0.0177293
0.00807207
0.00771633
0.00892554
0.00560337
0.023443
0.023995
0.0261603
0.113254
0.114971
0.0186157
0.0141974
0.0152204
0.00621752
0.00706171
0.129514
0.127708
0.133983
0.142592
0.15063
0.109478
0.0383936
0.0377732
0.0323321
0.0360763
0.0348073
0.0512565
0.0607777
0.0437601
0.0426342
0.019512
0.020767
0.138681
0.138607
0.242683
0.22711
0.0296759
0.00805773
0.0320837
0.0106584
0.0117008
0.0102829
0.0101614
0.00720383
0.118119
0.0175537
0.0211839
0.0298358
0.0276283
0.0604569
0.0617355
0.0379589
0.0371067
0.0345045
0.0320621
0.0167329
0.010458
0.027754
0.00859881
0.0337243
0.136649
0.0129554
0.0137785
0.14336
0.14965
0.0270752
0.0204862
0.0183943
0.00950924
0.0387683
0.0399827
0.0505008
0.0401286
0.0395845
0.0592526
0.024211
0.000577328
0.0411702
0.0417178
0.016659
0.0130691
0.0155775
0.082533
0.0833171
0.0824074
0.0491468
0.0666791
0.064867
0.0700103
0.0684442
0.133672
0.0976214
0.0983492
0.0310814
0.0331144
0.0328042
0.0530678
0.0755596
0.0112747
0.139918
0.139676
0.139885
0.13516
0.0444055
0.0208304
0.0224084
0.0290981
0.0258284
0.0580121
0.0346295
0.0368651
0.0517369
0.0561019
0.0378327
0.0281684
0.0986691
0.104306
0.108749
0.0293114
0.0291293
0.042866
0.043171
0.0218675
0.0732332
0.0714729
0.0550995
0.128279
0.0378741
0.0053734
0.00603785
0.135323
0.0238835
0.0659906
0.00352184
0.0212893
0.0197695
0.0214995
0.0197366
0.0260599
0.0451735
0.00995166
0.00840689
0.00770421
0.0954439
0.032863
0.000957334
0.00155477
0.0656228
0.13827
0.0647147
0.0650886
0.0400746
0.111793
0.106798
0.0196355
0.0204053
0.044959
0.0425797
0.0442791
0.0602262
0.02101
0.0220418
0.140027
0.140515
0.0358578
0.0220336
0.0201812
0.0346954
0.138786
0.0918941
0.0899914
0.0367549
0.0722494
0.032751
0.00300134
0.002408
0.0050596
0.0453759
0.0835681
0.00346688
0.183273
0.00243752
0.00454361
0.00690926
0.00432266
0.00363782
0.003816
0.00268802
0.00362578
0.129009
0.0365301
0.0380428
0.0200479
0.0354617
0.0639723
0.0627317
0.139372
0.1395
0.139295
0.0714973
0.0951672
0.0937155
0.0680512
0.0660006
0.0636302
0.0307987
0.0308333
0.0668527
0.0649824
0.0123911
0.0136746
0.0151813
0.145596
0.150648
0.138178
0.13798
0.0483676
0.120024
0.116249
0.0310683
0.0332882
0.137587
0.137264
0.00399504
0.0616008
0.0608815
0.139085
0.138809
0.00911156
0.133924
0.06598
0.0725995
0.0557026
0.0253261
0.0205616
0.00394587
0.0232641
0.093845
0.070579
0.0711538
0.0146022
0.0174185
0.0184485
0.00258522
0.0689179
0.0695741
0.060842
0.12465
0.125162
0.126131
0.0385964
0.0425631
0.0443416
0.045034
0.0443319
0.037086
0.10575
0.107413
0.0450406
0.0392505
0.0401045
0.0390074
0.0424246
0.0432675
0.00133915
0.112706
0.113788
0.115808
0.0139432
0.0128238
0.0437003
0.0436185
0.136709
0.136674
0.0250236
0.0275878
0.126569
0.127412
0.0385387
0.038975
0.0380822
0.231505
0.187765
0.0800954
0.078365
0.0120882
0.0135397
0.121271
0.0407993
0.0421163
0.131407
0.130614
0.129798
0.0212224
0.0230745
0.138467
0.13818
0.043434
0.042382
0.0432658
0.0283901
0.0264089
0.108071
0.107691
0.106601
0.0107595
0.0136652
0.0456184
0.0460956
0.0148871
0.138073
0.138251
0.0409747
0.1269
0.123018
0.0167079
0.0624952
0.0657603
0.0350529
0.0354648
0.0366525
0.138264
0.118383
0.103363
0.109835
0.115209
0.0208636
0.0739803
0.138205
0.0203933
0.00189598
0.00339589
0.0411583
0.0408796
0.0150207
0.070522
0.0359973
0.0333488
0.120535
0.131942
0.0429843
0.0449328
0.018998
0.0634115
0.0675715
0.0135242
0.0415575
0.0408426
0.0647917
0.00467361
0.00471434
0.121649
0.0467523
0.0471881
0.0457718
0.0354287
0.0408076
0.0367196
0.0494732
0.0506497
0.00660854
0.0514737
0.0508622
0.0413937
0.039621
0.0395709
0.0081882
0.00722987
0.0908164
0.0898341
0.0887975
0.0360889
0.0330259
0.052874
0.0467617
0.0486086
0.00351271
0.0340859
0.0968292
0.0968561
0.0964704