/*--------------------------------*- C++ -*----------------------------------*\
  =========                 |
  \\      /  F ield         | OpenFOAM: The Open Source CFD Toolbox
   \\    /   O peration     | Website:  https://openfoam.org
    \\  /    A nd           | Version:  6
     \\/     M anipulation  |
\*---------------------------------------------------------------------------*/
FoamFile
{
    version     2.0;
    format      ascii;
    class       volScalarField;
    location    "1800";
    object      p;
}
// * * * * * * * * * * * * * * * * * * * * * * * * * * * * * * * * * * * * * //

dimensions      [0 2 -2 0 0 0 0];

internalField   nonuniform List<scalar> 
29884
(
2.79218
0.0973767
0.517794
-2.66428
-0.164642
2.46044
0.112706
-4.39428
-0.835612
1.05657
2.79931
0.642146
-1.27729
-2.36843
0.0352429
-1.9208
-0.323781
-2.19623
-4.43037
-2.95666
-3.45945
0.537566
0.27235
3.37757
-1.58079
1.13144
-0.748245
-1.34106
0.322092
0.404567
3.10139
2.67493
-0.768714
5.28435
1.8218
1.68741
0.845077
2.97835
1.76721
1.01457
0.739143
-1.71474
3.04313
5.04759
-3.63521
0.520359
-2.25753
2.12537
0.594006
2.43518
3.09073
-0.310353
1.21893
-0.845429
-2.90897
4.33238
-2.69233
-1.66961
-3.70821
-0.634655
-0.313041
-0.796808
-0.31731
1.00968
2.06736
-1.9631
1.32777
1.56806
0.7283
1.43532
-0.43479
-1.16866
7.86661
0.687376
0.523142
1.481
-2.7786
-1.32492
-2.60155
0.822839
2.12109
-3.28316
-0.328452
2.05079
-0.241759
15.1759
0.663961
-0.617345
0.172113
18.9922
0.552568
-2.32059
15.002
20.3656
2.68866
24.6072
1.16928
1.28311
0.034213
20.2851
1.54405
1.70255
0.16255
0.555551
0.368023
-1.86387
18.3302
18.8452
3.08671
1.6386
1.27686
24.6143
-0.0666274
-0.201033
-0.197846
1.89506
2.39126
0.0173358
3.83151
3.35919
0.809784
2.5206
2.08085
2.68681
-0.355528
3.51026
1.18842
1.46766
-0.722601
2.96731
3.1864
2.84974
-4.31509
-2.30166
-0.201147
-0.654066
2.19453
0.36772
0.348137
0.629389
0.358518
3.08631
1.92139
-1.93786
-2.10155
-1.87613
-1.54533
2.44733
1.94314
2.12456
2.65368
16.5379
17.9389
0.727883
0.624791
1.01209
0.57316
1.17155
0.846564
0.625499
0.947482
3.42556
3.61299
2.72795
25.5852
25.497
-2.48181
-1.08044
1.01714
-5.9211
-2.84879
1.18833
1.20818
-0.377575
-0.222447
2.73269
3.04208
-2.90961
1.90912
1.7602
1.90778
5.32401
5.37886
4.72773
-0.15902
-0.10085
1.21178
1.07331
1.3214
3.19244
0.57405
4.26401
4.84252
-0.343179
-0.427537
2.54536
2.59172
0.673272
-0.0986055
0.0878546
0.289515
2.54223
2.43632
1.63104
2.497
3.92961
0.113297
-0.273115
-0.39132
-0.765595
0.572185
-0.587668
-1.78018
-3.57794
-1.63406
17.839
2.52987
19.6793
-0.157982
21.6688
21.962
-11.152
2.296
0.134524
16.6146
22.0612
19.2064
21.5259
12.2139
-7.22134
4.81928
19.613
18.1484
-7.21679
-7.55759
18.3084
18.456
2.73206
-3.61425
-3.4211
-4.02918
24.3497
18.3745
-6.45343
-4.24984
2.92399
18.5363
19.7759
-8.72694
-9.83639
-5.64093
0.549782
2.59614
2.44151
22.5513
22.2356
21.1846
21.5698
-10.6752
-9.75542
-0.606829
2.94983
-6.53304
22.8931
2.18111
19.9398
-9.49149
2.2266
1.82552
20.0432
1.10821
1.25256
21.0168
19.5458
19.6492
17.6057
18.3471
21.2385
20.9514
-5.03069
-0.794532
18.3475
1.65694
1.40714
3.75161
2.84994
2.50282
-9.16541
25.7136
1.80767
22.1722
18.3163
18.2954
-5.78848
-9.48647
-9.53966
3.07405
18.295
18.3729
-6.02665
-5.15486
18.9779
18.8281
18.9925
21.2204
17.4212
16.4022
6.53345
2.6167
2.85527
2.85136
3.13084
20.7834
-5.43465
-5.82467
-9.45507
-6.3391
18.8225
-10.6789
-9.77187
-10.2983
20.2344
20.7955
21.0107
-10.2056
1.2999
20.0285
20.6114
20.6737
21.0509
2.14187
1.73215
1.70702
1.75035
18.4198
18.3601
2.1897
-3.82303
22.0762
22.0136
-7.38541
-3.22342
21.8747
8.03907
0.398561
22.2888
21.861
22.0242
22.0543
19.5616
19.2424
20.1757
1.15344
1.25463
0.841075
20.639
21.217
21.3499
21.3421
21.2656
20.0745
19.0997
6.13206
0.40868
2.3553
2.21627
2.76143
2.64521
25.0011
22.8689
-6.60879
-5.77168
0.563341
0.687495
0.533925
2.93002
2.29878
-7.837
-9.70036
-10.1261
-10.1375
11.7039
4.05913
4.02698
3.58855
-5.73743
-6.41415
-6.23973
-5.51249
16.4053
17.575
18.614
17.0778
-6.82862
-7.34338
-6.8572
18.4338
18.758
-4.15058
-4.10992
17.7517
18.9038
16.2627
17.5702
16.6725
16.3807
19.5039
2.98598
3.20319
1.98534
2.26467
18.175
17.9564
22.1257
22.2991
22.5036
19.6372
-0.0583208
18.0441
17.5908
18.539
-3.55496
20.6846
20.5388
21.4201
19.6939
19.1338
18.8789
18.4327
20.7299
20.3195
20.4621
19.8921
-3.99409
18.2561
19.2133
19.1747
19.4559
-4.50954
-4.95574
19.536
19.2117
18.72
18.9677
3.84416
3.4689
4.01514
-7.11998
-6.02662
-7.52859
-6.89061
-0.358165
-1.56587
14.3657
14.1994
1.15634
1.20422
1.18873
0.946928
-1.23742
25.2029
6.64444
5.92507
0.285898
-6.85054
-6.46091
-6.92388
-6.36642
16.2866
15.3513
15.677
14.5524
1.53107
1.3967
1.53949
0.887202
0.930536
1.14414
0.725738
0.938282
0.866264
3.60428
3.39458
3.47223
3.87987
-5.9951
-5.43954
-6.03597
-6.23197
2.90954
2.58285
2.7737
22.0664
22.2803
22.1217
21.5758
4.14114
4.91905
4.3725
24.4359
25.2407
1.34054
24.8835
10.8144
0.803654
0.775456
24.5344
24.3923
0.815201
0.842978
0.847285
1.29987
-8.36987
0.870187
-0.476289
24.705
24.7343
2.30427
19.7677
-0.0436434
0.952569
-4.17039
-5.87984
-1.86343
-2.07698
23.4553
-3.59559
-4.07568
-0.313101
1.94606
-5.55558
-0.0271597
0.173714
0.186702
0.319265
-1.82859
3.12704
3.18794
-2.75769
-2.65386
-2.83114
-0.12294
-0.370428
1.1775
1.22199
1.03335
0.97933
4.66018
23.1549
2.27328
2.24887
0.0291022
1.09716
-0.426921
0.903607
0.97697
1.01229
25.1542
1.37368
1.31379
-8.43142
-9.34706
-8.31338
-2.35917
-6.46061
-4.93976
-0.401335
-0.354196
-0.374627
14.6246
13.8127
-3.01781
-2.64664
-2.3973
-1.70942
7.25426
-4.67204
-1.0482
-0.879053
-2.42757
-2.7265
25.0291
0.285024
-1.15883
14.4498
-0.202714
0.120548
25.6703
18.7411
19.3759
2.15006
1.05627
1.1266
-7.31716
2.33459
6.33692
7.10436
22.3045
22.1194
3.95073
4.46382
4.26661
0.988277
0.934183
23.4766
1.23413
3.49949
3.71566
1.83503
1.64077
1.49835
2.3658
5.65277
5.03213
6.21066
5.56376
2.77857
0.433657
1.59899
-0.831202
1.50684
0.228775
0.81625
0.939006
-5.54748
-6.66704
-1.56741
-0.176812
-0.556666
-1.05624
9.3244
10.5627
19.4615
19.8745
20.2728
21.4721
0.787826
3.01037
2.80315
0.650506
1.29201
17.4116
16.7165
-3.72109
-3.98471
-3.25746
1.98135
0.88802
3.12755
3.48192
6.88712
3.7304
4.36751
-9.96453
-10.4297
1.08245
1.25146
1.05758
1.28568
-2.60017
12.7759
12.0328
11.2137
1.58187
1.68218
1.79413
1.75785
1.89715
0.934509
2.88519
3.06198
-3.43846
-3.2908
-2.91606
-2.06351
-2.30397
-2.5868
-1.33923
0.564393
-1.94363
12.9436
12.0253
10.8774
23.3786
23.2725
4.92905
5.37816
19.8038
20.0398
-0.681894
-1.17448
-0.416383
19.5825
19.8872
8.25762
7.63337
22.8388
16.6996
-8.35286
7.25598
3.41743
5.44451
23.265
4.52969
-24.9262
-8.70938
-19.1873
-1.87339
22.7779
-5.90621
-12.0959
20.2102
-23.4356
-5.60148
-5.73072
4.41968
4.55493
3.72425
-0.854809
-1.42202
7.04284
-4.51901
-4.91505
-8.58742
5.3395
4.77166
-4.98207
-4.1981
-3.8299
-1.39845
0.237511
-0.00264187
19.2338
3.72847
4.44456
-3.29987
24.3748
17.4589
17.1371
23.4304
-16.6633
4.04295
-15.5635
-11.342
23.7207
0.466432
-0.783626
3.03717
21.3349
-11.8169
-11.6196
4.69491
-3.43424
-2.43736
-3.69801
-2.16075
-4.3198
2.76602
13.6778
-12.564
4.02561
18.8304
18.9975
1.84553
1.74806
-10.0561
-2.45791
20.6079
-7.85375
-8.80592
-1.53417
-0.468141
3.57046
-34.3752
-3.65838
-1.30885
2.56624
17.5282
17.5974
6.05239
-6.63564
-6.86689
-7.62834
-34.7403
0.217516
-10.8515
-10.5671
22.5369
0.937889
0.433155
22.8427
22.6623
-13.1288
-13.1908
0.241124
-11.9574
19.5079
-0.719706
-1.30792
2.11051
-7.50601
14.5225
-0.3576
-0.605011
-10.1626
-3.98696
-2.8104
-7.85165
25.2655
16.1911
-11.9038
6.17963
5.81208
16.9227
17.1007
-4.50045
-4.17508
-13.8636
-25.1432
-6.10054
-10.3367
-10.5011
19.8315
-3.51916
-13.1502
23.5523
-18.3659
1.8003
-5.6067
-5.80209
3.05905
2.9809
-0.19034
16.3565
4.06739
-25.4829
-12.933
-13.1128
2.76625
-10.5015
-2.11461
-0.658072
-14.1463
-14.4014
6.39584
16.9548
22.165
-3.63081
2.26566
1.95026
16.5962
16.5203
-2.22752
7.66455
-1.58961
-1.48107
-6.47816
3.44578
0.534673
0.094826
8.22292
9.39067
19.2989
22.5407
22.7562
22.726
-3.42309
-2.19057
-10.3334
18.1518
18.3484
13.5282
0.699982
15.8013
23.0931
15.2012
14.7097
-7.73742
2.10353
-1.15979
16.2721
16.2246
-4.874
0.967806
-11.6078
4.47476
-12.1107
5.05322
4.90249
20.1965
1.35344
-16.4205
0.691174
-11.286
-0.934053
-0.0375574
16.3067
15.9332
15.7713
4.84057
4.23484
1.99355
-8.89763
-8.97613
16.9144
1.87909
1.49262
1.253
-0.188915
-0.550354
3.30918
-9.5836
-10.4476
-24.8423
-3.64121
-3.08554
-2.91496
7.95497
7.74504
5.6797
6.00933
-3.92879
-4.34978
-14.3142
3.51861
-2.57141
-2.86601
-11.9261
6.95978
-22.3558
16.055
-11.4294
-11.1651
-20.291
4.26424
-12.3132
1.47049
1.78675
-12.5261
-10.8326
0.180296
16.7609
-16.9788
4.37716
4.77412
-11.8115
15.2494
-11.026
24.5949
2.6816
3.137
4.09388
2.19319
2.77599
0.274475
0.488485
1.61044
3.29082
-17.8957
-16.6715
6.07315
2.18677
1.38863
-0.168627
-1.75364
-2.0961
1.85185
-8.44272
-9.55174
4.82512
4.50866
-4.58118
-13.3497
-13.6347
2.7183
3.00623
24.3425
-6.75571
-6.35945
-1.97274
21.9647
-2.5372
-2.22545
-5.80426
-5.6111
1.47656
1.7331
2.57532
17.8132
18.3143
-11.1573
-5.22071
1.67514
-11.1188
-10.9367
-11.2541
19.2406
18.9765
-11.9456
2.41934
-19.2349
-19.5982
6.22775
5.75195
-12.0795
-11.8883
-12.1161
16.262
16.492
-5.70987
-11.8839
-3.58786
4.83579
-7.66366
-7.81354
18.6053
-11.9843
-8.30056
-10.0528
4.86021
23.2628
0.270275
-0.334059
2.89923
2.33195
-16.0623
-12.1814
-11.625
-10.0722
-9.25155
2.29934
2.27112
2.16199
-13.1943
-12.3897
18.6793
-4.6238
-4.3271
1.78231
-8.24261
-7.99948
-4.19196
-3.63349
1.97974
16.3145
16.2514
-12.9461
-12.395
4.0761
4.40214
3.93828
4.84607
5.56078
16.3857
6.55266
23.2457
-8.7729
-9.16541
-8.57417
-8.50368
-7.60923
-8.68798
-11.775
-11.8854
-1.08134
-1.10515
-1.30368
-0.55008
-1.9573
-6.18169
-6.56976
22.9263
18.9737
-12.2212
0.461405
0.417254
0.0091016
12.9154
-0.320418
1.98526
2.26541
0.561122
0.706089
1.01206
2.1988
2.97818
17.0655
16.7009
16.8254
17.1625
-2.89332
-3.47115
18.7315
2.92792
2.88992
3.13262
-0.0644422
2.2219
17.9473
-4.87574
-4.35192
17.8708
18.2715
17.4942
0.677518
-2.65904
-2.43044
-0.609462
1.53379
1.92532
-0.810493
3.10988
16.7618
16.8218
16.5954
-7.90395
-8.5023
-7.65185
0.709513
16.7306
4.47268
3.80295
-0.633725
22.4395
7.52403
7.36907
7.53047
-10.3254
18.9742
-12.3127
17.4231
17.6139
24.1118
25.6123
2.3403
-4.66523
2.50109
-5.15023
-4.77083
-0.259955
15.775
0.122867
4.40294
-20.3592
-0.274811
0.0725536
0.288049
17.8084
2.28268
2.27899
2.35375
4.04688
4.82937
23.7492
17.5304
17.7207
-0.649638
-0.413546
-0.0475114
21.6818
22.345
3.00893
18.1913
18.3782
18.2898
17.7099
17.4486
17.6633
1.79727
18.5783
18.6838
-12.1935
24.096
3.61523
3.9509
-0.173499
-0.12661
5.16156
0.267634
-0.224933
-0.718711
2.16023
2.07094
-9.34656
1.06261
1.34947
1.4136
-0.0265224
0.332878
8.11813
2.13687
6.68253
-2.77998
21.0768
22.6656
-1.39385
24.3198
-11.4984
3.87219
16.4585
-5.66953
17.7964
18.0845
14.9674
14.9138
1.34042
0.621692
-2.33831
-2.20441
-2.40976
-0.694762
-0.299341
-0.553888
6.61236
6.39649
21.1679
21.7728
24.5683
-1.47774
-6.41746
2.79975
3.01405
2.97293
3.41358
3.57672
16.4084
16.2488
1.39088
1.3451
-1.2038
-0.189798
-0.380164
-0.810304
17.922
0.533898
1.39917
1.72358
2.14817
1.60478
-13.8505
-14.296
-13.7814
24.6155
17.7593
17.1419
17.9228
18.3863
5.9296
6.18993
20.7987
1.74647
1.97116
5.96209
-10.1422
-10.1623
-9.19572
16.835
16.824
16.6643
-9.73431
-9.91754
0.319416
-12.4126
19.6643
19.5991
13.8614
13.7001
2.31815
2.50333
2.14321
1.98251
4.78883
4.59553
14.826
-10.6555
-11.0972
-11.6385
3.01092
2.62868
25.6286
18.6391
18.5511
-4.62914
-4.88912
24.9473
22.2677
22.7118
22.8333
22.8686
-3.78628
-4.22899
-14.9754
-13.4447
-16.813
-11.8138
22.5537
-7.95066
-8.17481
-8.28143
-10.4981
-10.2433
-10.1896
-9.31206
25.0746
25.1889
22.9244
22.7855
24.7969
22.3182
18.4423
18.1421
20.9785
-7.66002
23.6891
1.737
1.5326
1.72857
2.85067
2.84363
2.37454
1.09314
1.26874
1.5804
2.08406
5.37882
-9.9868
-10.0678
-9.45415
16.5929
16.1341
16.5687
1.01111
1.28554
0.927883
1.89652
2.06032
2.30238
7.98835
3.08331
3.38515
3.22504
-1.38277
-1.02721
-12.3763
2.93933
2.3578
2.51081
25.1307
24.937
2.22658
2.24781
2.54236
2.84914
-11.3508
1.4422
1.36433
0.676805
1.46627
1.8944
1.97671
1.78427
-2.73218
-2.53304
-2.88777
-2.33996
-9.90443
-11.8943
-11.8105
-11.7627
-11.8118
18.2974
17.5223
0.457603
1.18254
4.31103
3.40673
-17.5179
7.93707
-11.8498
-12.7325
-5.9093
25.4046
-11.4854
-12.043
4.18693
4.76054
3.39846
0.515637
0.691836
23.1073
-7.73196
-7.74909
-6.86412
-8.6921
-9.04319
-8.74672
-10.585
-10.6833
-10.6853
-5.41727
-5.68357
17.8349
17.4715
-0.0599418
-0.188592
0.481773
25.3441
20.4159
23.8264
13.9928
-11.8095
-11.9296
-10.9746
-11.83
-13.9022
17.5921
17.3391
17.1198
-7.5733
-6.78529
-7.34326
-6.63089
-11.476
-11.2393
-11.4312
-11.5128
22.4938
22.8307
22.4022
22.3812
-8.96211
-8.18512
-8.86104
-8.20025
13.7787
-5.88183
2.21458
2.09366
1.8352
2.17738
-2.36415
-1.93936
-2.11125
-11.7482
-10.7423
-10.27
-10.8758
0.486519
0.639256
1.03132
2.0436
2.14952
1.88274
1.86252
1.52922
17.4769
17.904
17.4016
17.0057
2.25025
2.12015
2.09783
2.15066
-9.63137
-9.89373
-10.0837
-4.72418
-5.49163
3.46538
3.80559
3.17967
-13.2387
-13.8067
-1.62194
-1.46747
1.17626
1.65597
0.660022
1.22914
0.35002
-0.241822
0.303048
-5.94259
-6.16322
-7.09312
-7.46747
-6.98065
-6.91627
15.8475
16.1009
-1.37269
17.6875
17.6867
19.6634
0.589482
0.916022
1.27498
0.997484
17.6301
-3.50004
-2.68992
-2.62445
-2.00623
2.61175
2.27173
16.4024
16.6398
16.2397
16.4551
-4.06704
-3.67488
-4.5046
-7.22589
-7.62633
-7.72685
17.7201
17.4715
18.2841
18.1055
-8.02581
4.92023
15.7826
-8.07752
-8.37752
-7.10425
-8.07168
-23.0445
5.97737
-22.5866
-22.1503
3.60424
3.89931
3.16011
3.37257
-2.61012
17.5407
17.8238
3.73068
3.50702
3.96732
0.0897432
-0.224159
-11.9536
-12.0035
-11.9166
-9.19301
-8.88673
-9.13959
-8.70224
19.3099
5.68645
5.58741
-5.75037
-5.96356
16.8194
16.9932
16.8509
19.7397
-5.35451
4.70803
-0.987282
-1.26525
-1.07571
0.997124
-10.0778
-10.5788
-9.59506
1.39965
1.5176
1.18297
18.2619
18.3501
2.68251
2.30775
-8.05282
-7.77644
-8.52447
4.87899
4.57657
5.05119
-6.93537
-7.16944
-6.87781
-7.22132
-7.41868
17.8155
17.2899
17.5933
-4.42529
15.5313
15.2693
-2.23673
-2.38201
-1.25794
2.14503
1.50609
-12.3973
-12.3479
3.78905
3.4866
19.0305
18.5756
4.3789
4.12268
2.86458
2.44916
1.35562
1.3835
0.79429
0.819825
1.28664
1.28119
17.735
17.5151
0.169511
-0.386625
-0.556001
-0.196515
-1.25876
18.2866
18.1067
17.9919
22.5625
22.6778
22.3162
22.6859
17.032
17.9667
17.9764
17.8108
-0.283168
-0.776215
18.7837
18.9012
3.09471
3.11589
3.55999
3.45668
3.31271
-12.2567
-12.1867
-12.1735
-12.0711
20.2566
2.53038
2.34379
19.4402
19.2926
18.9928
19.3743
-0.709222
-0.661687
-1.13627
-6.01541
-6.19127
-5.732
1.45744
1.95267
0.952857
17.8017
17.8875
18.045
18.177
-4.48229
-4.16956
-3.84948
14.6381
-13.3902
-13.1054
-12.6207
-0.00246951
-8.22138
-9.15076
-8.68862
-8.81592
-0.583554
-0.849354
-0.0238464
-0.438205
2.6083
-10.8099
-10.7885
-10.2846
-10.7185
2.62948
2.24204
1.99855
1.83805
1.63142
1.62965
1.93166
1.64749
1.31548
23.1948
17.7957
17.8956
-12.3643
-12.3652
24.3549
-6.2607
0.183923
-0.310025
-0.971155
-0.660946
-1.86675
-2.38396
-1.71284
-11.8096
-11.3151
-27.3035
-26.4372
15.6675
15.9932
16.1968
16.3655
4.52639
2.57698
2.30687
2.68515
-25.68
16.4082
16.5454
15.8475
15.9922
-9.42628
-9.09571
-8.80353
-8.15025
0.727281
0.778819
0.674839
4.52199
-9.22591
-8.96489
-9.29031
-9.3233
-14.4834
-13.8852
-12.3776
4.63948
4.41518
5.40211
18.2362
17.832
17.8434
17.8036
8.98031
8.95505
-3.14043
-2.19727
-1.73321
-1.82539
18.8322
18.5933
18.426
-8.97716
-16.2315
-17.6486
19.1278
18.9705
4.70887
4.67956
4.91406
2.23758
2.20653
2.39841
-12.627
-12.8251
-12.6192
15.9749
15.6685
15.855
16.3383
22.5287
17.6623
18.0264
17.4734
17.6923
-5.72398
-11.0261
-5.31594
-5.7337
-1.69195
-1.51849
-0.607614
-0.839379
3.03197
2.23859
2.11716
2.07338
2.55807
-1.09889
-0.0106343
-0.759203
19.7549
3.21886
3.07696
3.16607
-1.83322
-1.05914
-9.33938
-9.48386
-9.417
-11.0093
-10.4549
-11.0311
5.88406
23.1032
4.3547
21.7609
21.8465
2.09262
1.5789
2.18365
-5.8829
-5.82826
-6.1008
0.474463
-11.4508
-11.7422
-11.5764
18.7214
19.025
1.37979
1.0363
0.816438
1.11828
4.12001
4.16066
21.77
21.8231
1.35389
1.02724
1.63708
1.468
2.21407
2.52815
18.6776
4.21783
4.39783
4.1658
-1.5015
-1.01649
-1.45171
-21.1765
-8.03438
-8.58345
-8.75035
-8.28643
18.6096
18.1401
17.9971
18.3052
-5.98243
-6.96657
-6.41878
-11.6821
-12.9456
-16.3109
-13.0972
-18.7818
-0.0706535
-0.232738
-1.28251
-1.02566
-6.94964
-7.50758
-6.96406
-6.16874
3.56824
3.35809
2.73343
3.06634
19.638
15.4552
15.1575
15.463
-6.91102
-6.5107
-6.76036
-6.97078
-14.424
-12.9717
-10.3241
-10.1751
-9.45548
-5.49033
-5.14427
-5.38708
-4.46724
15.6339
15.8609
0.584973
0.53986
-9.67384
-10.1094
-10.0878
-10.1209
0.929455
-6.37812
-6.01968
-6.32024
-6.09453
1.96566
2.14476
2.10489
22.824
17.7442
-11.8822
-11.3366
-11.4345
-10.7434
1.24333
1.49044
-10.7082
-10.6801
3.42399
19.0626
1.78842
1.5082
0.436531
-5.72279
5.40766
5.11486
5.23683
-7.17663
-6.4845
19.0118
-10.3969
-11.6081
-10.7899
-13.7273
-0.230478
0.170993
-0.132793
21.5545
21.5068
25.7179
-5.0182
18.9297
2.2573
2.35687
1.83527
2.16135
-0.55921
-0.0565097
0.680094
0.309235
2.20427
2.23298
2.31727
2.3087
-10.8359
-10.2173
-9.67232
-10.5155
2.08671
1.9995
3.11549
2.15583
-7.67346
-7.16459
-8.24241
-13.7543
23.2668
-8.00084
-11.5754
-11.1051
1.05634
1.03551
20.4663
-15.3882
2.22862
2.665
2.37333
19.5218
-0.383413
-0.773434
-0.248448
0.397271
3.77355
1.04268
0.572697
1.48459
1.77265
21.7124
21.8467
21.1464
21.4464
1.7708
1.87858
2.03161
1.50391
-0.611735
-0.948335
-1.27356
-0.844214
4.08203
4.29144
4.42746
4.04972
18.6242
18.582
17.9125
18.2486
18.1573
18.3168
-8.9987
-8.13479
-9.09309
-9.47259
-0.0546249
-0.180106
-0.484107
6.30163
-12.049
-12.0881
-11.9265
-11.6967
-11.694
-10.5022
-12.025
-12.775
-13.1668
-13.4654
-15.8978
2.16368
1.66267
25.7304
18.2787
17.9696
17.8375
17.6108
-14.6836
-13.7117
-13.3599
0.615021
-5.51235
-5.85796
-5.32289
-11.5314
-11.6425
1.95906
-11.1202
-11.0736
-3.46911
-4.04678
-4.38859
-9.66163
-8.66567
-8.51907
-9.35281
-12.1716
-12.2334
-12.1117
7.94188
7.00575
-9.04932
-8.1699
-8.69313
25.7429
-8.54922
-8.22982
0.957767
1.05554
-0.115511
0.998834
0.831004
1.07658
-13.5889
-12.328
21.0405
21.2584
0.490245
0.972382
17.9291
18.0643
18.0437
18.3131
-5.25324
-10.992
-10.9813
4.72533
4.85168
4.177
4.75643
0.468346
0.454098
0.866991
0.599064
0.2337
0.320361
0.760286
0.539319
-0.871614
-0.782576
-0.9195
-12.8575
-12.5838
-11.8069
-12.3945
-10.4458
-10.6353
12.7748
-8.23488
-8.23249
-8.27958
4.88464
18.8036
19.0148
18.9573
-1.2498
-1.37436
-0.112657
0.0506949
0.0240615
0.470217
-10.1247
-9.55026
1.47508
1.70276
1.12025
1.47634
1.32347
1.76312
1.81955
2.09471
18.1132
18.0815
18.5627
18.435
-12.2359
-12.2517
-12.2017
19.2963
19.0524
18.6637
18.9699
4.68567
4.79111
4.44608
18.644
1.85715
1.40982
1.43685
1.37024
-18.1203
-15.9983
-19.6471
24.7439
-3.75566
24.949
25.1386
25.2033
23.1413
-14.6119
23.0792
23.7247
23.7827
23.282
25.7727
21.0519
25.5335
25.5637
24.745
24.7863
-11.7565
22.1759
22.1266
0.42435
24.0534
-6.24995
21.7926
23.322
23.33
-6.82231
23.9494
0.624446
24.548
23.6168
23.5543
21.4487
-1.20384
-0.119148
21.2852
21.1529
-16.4231
24.9307
1.20453
1.99688
-1.22504
5.77758
6.72681
-7.35456
25.4365
22.7181
25.6822
25.6284
25.58
-15.3462
-15.8772
25.2026
-15.8069
24.0043
23.8931
22.7063
24.277
-4.30959
-16.2292
0.384764
0.507696
25.7909
-19.1366
-19.6425
21.8815
-26.5684
20.9575
20.9562
20.9418
2.62788
2.5072
25.1896
-0.689455
1.25718
1.4607
-19.1574
22.971
22.9834
25.3764
4.35548
23.948
22.2917
25.4554
21.7936
22.9156
2.52801
23.8692
19.1553
19.1898
0.538584
6.64129
22.7335
17.5589
23.0618
24.9881
2.08876
20.3812
25.2035
23.1345
23.1818
25.0629
24.2968
24.2342
23.6092
23.9974
23.9178
21.4426
21.3175
23.1696
20.2154
23.8355
20.0203
0.717002
24.2731
11.19
20.8996
-1.17788
24.0885
23.4869
23.6461
23.7073
6.18115
21.2296
21.1135
-27.0316
25.5628
25.5779
23.9109
-0.467214
-0.47824
-21.7574
23.7547
-28.2423
-27.3059
24.28
17.749
17.9618
-1.32349
18.8467
0.0809741
0.0234869
18.1214
22.5836
23.1505
-0.661653
-1.10041
23.2534
22.2556
3.7764
21.0317
24.8626
22.3212
19.6064
22.6005
21.3763
-10.2774
-10.4845
-10.1266
25.2544
23.3258
-12.3947
-12.4709
4.01893
3.86726
-14.4595
-11.8869
-11.4155
0.65594
24.671
24.3277
-6.39009
1.28216
23.0835
22.9649
23.2497
25.0356
24.9595
22.8855
22.7265
23.9128
25.0668
22.6877
22.5157
24.3404
24.2647
23.6145
23.6067
4.74391
22.3782
22.1418
23.3037
24.8142
24.3931
21.7295
25.4558
19.4398
19.6216
23.2824
23.2081
23.452
24.3651
21.5725
21.4404
1.52952
22.0225
-0.313965
-0.442348
-0.434848
-13.3963
-2.61181
24.0604
-17.835
23.5681
2.09747
19.7811
25.3281
22.675
22.5153
22.5844
24.6709
23.805
0.949657
10.5929
9.77858
22.1664
22.3193
-1.12985
0.818389
-3.521
-3.28394
23.5172
22.3024
0.232647
19.3011
19.6846
24.6583
23.1724
-22.3324
7.8223
7.19476
22.7636
-4.9019
22.5693
22.3444
22.3835
25.3668
-6.65619
-7.69531
-7.50914
14.8396
23.269
-0.665049
-0.9559
3.75312
0.297212
-20.8097
19.6758
20.1317
0.785614
0.668123
0.506046
20.656
1.66356
25.541
25.4855
24.8091
22.8899
-23.531
22.767
22.7997
22.8668
22.9401
22.5499
24.135
24.2076
-2.12479
-6.50755
21.5694
8.58514
3.12966
3.14864
19.8297
-0.787044
-0.937107
-3.2854
-3.70559
25.2132
-26.2465
-1.05117
-1.51593
23.1191
23.2478
20.8139
20.7302
0.0407977
-0.172022
-0.406295
-0.70421
22.6293
-8.0349
-7.76459
1.18622
23.0457
22.9991
7.69807
23.6418
23.2054
22.4546
24.3313
20.3252
23.3694
-2.07363
22.0493
21.8321
-18.4823
4.67386
20.3517
-18.6037
7.74167
8.37382
7.6331
-18.4591
1.88501
4.75042
-4.91377
20.2433
25.1589
23.0883
23.37
23.2372
-2.20166
23.08
23.1134
20.6428
-5.15482
-7.37381
-6.00467
20.6799
19.6627
19.5393
-0.522178
-0.251256
-13.9701
21.5731
21.4978
21.8791
21.2972
-0.870066
-1.29684
3.38707
3.07078
-1.39388
-1.17231
0.643958
25.001
25.0608
1.9915
24.2449
-6.63845
-1.634
-1.49045
-1.20276
-11.2507
-10.8518
-11.0342
0.102664
-4.16797
-4.74373
1.71231
0.883482
1.01395
0.15688
2.39855
-4.08481
-4.0148
24.28
24.2501
0.389795
21.4999
-10.5629
-10.8491
-9.41224
-2.43685
22.5469
18.5634
22.3374
9.7489
24.8149
20.573
20.5572
0.80295
0.816425
0.976953
21.1666
21.1175
24.6795
0.23468
22.0873
9.80237
20.4974
20.4661
19.98
0.543332
-1.67202
-9.00002
-9.23814
-4.60145
-5.13745
24.1587
24.0932
1.33939
21.8027
23.4136
24.5639
-0.45741
-0.893644
0.690405
-5.29409
0.598348
1.53625
1.39822
24.3201
20.7901
2.44227
2.34262
1.77871
2.15982
-4.38497
-3.30113
3.08764
3.11246
7.97139
8.75565
25.4352
0.596704
0.247616
-1.80716
0.153823
0.218229
0.220182
-0.817543
-0.377008
0.631331
0.544757
0.312727
-0.847681
20.5194
20.4063
19.6976
-7.12096
-6.83195
-7.59461
-0.913961
-1.09347
-6.34014
-9.63104
-9.90445
-1.92239
-1.48646
-4.27735
-4.43955
19.5481
19.5606
24.9501
24.2231
4.04785
-6.32544
-6.50513
-6.4781
-0.764484
24.1243
24.0241
-2.98726
-2.48285
22.1962
24.2361
22.7503
22.6585
24.9734
18.8203
19.0179
18.8442
0.819057
0.710007
22.0102
24.6585
24.6146
24.8796
24.8519
7.37228
8.62544
-8.23943
-7.28635
-10.8444
1.74123
-8.8497
-8.36795
-4.71049
-4.93599
-5.24552
-5.7411
-5.80096
-7.88307
-8.32543
21.8649
21.7774
0.521716
0.607829
-0.838635
-6.15557
20.4168
24.5794
20.4584
24.5815
22.5535
22.6965
22.6256
25.037
-6.27512
-2.91929
-3.23668
-3.482
-3.46435
-3.17281
-3.01633
-13.093
-13.4933
20.0561
7.00149
22.3816
22.0204
7.4316
21.1146
-12.3696
-0.0940314
23.9328
23.7316
-0.60073
-0.640554
20.3391
-6.99962
-6.91943
25.0058
-10.4758
-9.75238
-5.13147
18.583
18.5798
-2.44853
22.5513
24.6501
18.6488
18.67
19.9518
19.8566
19.6136
0.425086
0.515255
0.390587
-6.92032
-1.06589
-0.807619
1.3323
0.911853
2.55475
2.08263
2.21209
19.6766
19.4747
19.5122
-4.16645
-1.10762
24.3244
0.862792
0.868137
0.905368
1.63239
-11.2815
18.4748
19.114
18.7761
19.4446
-4.17451
18.0455
17.9443
21.2978
20.9039
18.5931
4.99478
15.4981
14.9955
14.514
23.3792
23.2727
-3.78917
-4.05866
-1.58564
-1.51326
2.59125
-5.7353
2.05018
23.1377
25.2171
25.1591
1.81681
22.5302
-0.487251
-15.2239
19.0249
18.8218
18.7701
19.8786
20.0368
5.06852
-6.18964
-6.04467
-6.07004
-0.227485
23.1509
24.4699
24.0749
-0.323486
0.680326
3.13734
3.38262
18.1511
-0.791313
-1.34242
24.0199
24.0209
22.3776
22.4744
22.2439
-0.534683
23.8859
23.8699
0.853442
0.105911
17.7818
22.2792
22.2273
20.2909
0.916081
2.18125
1.80371
19.8557
2.63588
18.3896
23.2178
19.0962
19.2875
22.2791
-0.601301
23.0158
-3.5375
25.0957
20.1839
20.2381
25.3391
25.3752
25.3867
25.0345
22.9056
1.66048
22.8085
22.9453
-9.81459
19.5723
1.8529
1.00206
1.09446
0.998683
1.14105
-1.76916
1.8659
1.76497
-0.79887
-1.19419
-1.45321
20.3025
20.2396
-2.41837
-2.66106
-6.51302
-6.71981
-6.79413
-2.04578
-1.92429
1.51132
1.5686
-4.71655
9.50683
10.4409
17.626
17.4592
1.88804
2.09525
-5.94568
0.765237
0.211744
0.767878
0.743497
21.9945
5.27386
17.7226
17.2647
-4.00942
20.116
-17.957
24.9534
0.30669
-0.48773
2.03002
2.24474
-5.27141
-5.33273
-5.06495
24.1927
15.0981
15.8334
16.4121
1.56338
1.33521
1.18063
23.0139
18.96
18.6195
18.5255
18.4789
3.05242
2.26094
2.25053
-8.00279
19.3847
19.3483
19.4524
18.1537
18.091
25.3439
1.17849
1.45917
1.20317
-8.2132
-8.08304
-9.57631
-8.85537
2.7164
2.89218
18.4856
18.2598
2.90234
2.97585
19.1974
18.9834
19.0381
-3.47951
-3.11134
0.522153
0.415375
19.2819
19.3953
0.38393
-9.59956
-10.0459
1.77412
1.56168
1.92426
-8.56589
-8.90659
0.713295
0.66336
18.754
19.0047
18.7227
-8.1211
-8.12664
0.126515
0.358396
0.0163343
-4.26046
-3.93212
-11.3291
-11.5731
22.6638
1.62442
1.49314
-13.1812
4.72337
5.05981
20.8958
20.8474
20.3883
19.0645
19.1998
23.0354
1.46613
0.49379
0.229204
0.824325
0.987775
21.7828
3.19476
-0.19194
-18.3481
11.6397
12.1352
-7.86978
-7.68564
24.6414
-2.01627
5.60078
5.55423
3.8329
-10.4358
17.2807
16.8183
-9.71621
20.2312
19.8841
21.8909
18.5369
18.7946
-2.19706
-5.91024
-5.98918
3.16323
17.9425
18.0039
18.0535
19.3821
19.8944
20.0457
21.6033
21.7035
-4.15061
21.9677
21.8604
17.8358
18.457
18.4551
24.8171
24.8739
1.59122
1.53946
1.43402
0.944155
0.348827
21.0985
21.5656
21.2581
25.3303
-12.0553
2.00942
2.01906
2.49274
2.60785
21.2006
3.73732
3.14308
3.29286
-5.94173
-3.46546
-2.33604
-6.20495
-6.31847
-0.022455
0.0834456
-4.73133
-4.126
-10.8151
-10.4768
-10.7533
1.20056
17.2579
17.6557
-0.371173
-0.552912
-0.0651152
19.0571
18.8533
18.7432
-1.33438
-1.2313
-1.47524
-10.6755
-23.6606
4.89403
5.04645
-10.9405
-10.6438
0.90381
1.26665
18.6565
-10.2014
-10.1638
2.56431
2.44033
-0.128038
-0.0844416
6.13297
6.71589
7.69004
19.9094
19.8756
-14.7671
18.6544
18.7902
1.62766
0.67529
1.07502
1.22363
0.627067
-4.7346
-2.85966
-3.74857
7.31291
8.10227
9.48543
8.97423
19.9281
20.1854
-1.3683
-1.48503
0.985479
1.19387
23.0097
25.2829
18.6327
18.5607
20.9521
-5.32821
-5.00968
-4.9468
-0.853933
24.5229
16.849
16.9896
3.2096
3.03779
20.9821
20.9872
-10.2904
-10.3478
1.36122
0.722992
0.460919
20.162
20.2966
4.10972
4.5115
19.439
19.5429
22.635
22.4775
-22.2423
0.222554
2.24072
2.14407
-3.16899
-5.21416
23.5498
-16.4156
-3.9155
-10.0487
-10.363
-3.64731
-2.92477
-5.54798
-5.51241
-0.62429
-0.550473
-0.999044
2.58577
2.81352
0.131089
0.638699
0.420034
24.0482
23.2661
25.4036
22.0432
22.1311
21.6065
22.0673
1.36149
1.86854
1.41631
-5.0767
-5.05542
2.68651
0.526211
0.386213
0.442319
-4.25673
-4.1831
13.9275
21.7497
8.13109
18.1383
17.8211
-13.2709
7.97735
-1.2491
8.93399
-25.5849
11.893
-12.1848
-14.2472
-11.9221
4.88629
5.36812
8.23363
6.23431
-11.9576
-9.01425
-8.65025
7.78961
8.81795
9.03749
12.1393
13.9977
-5.82431
-8.26045
7.04456
4.44676
8.84943
3.10504
-12.0513
-12.1554
10.9729
12.0099
3.53036
-18.5793
-22.7125
-9.89402
12.4245
-8.10449
3.18108
11.0835
11.1725
6.21922
6.26977
-7.616
-8.09395
-9.1294
-12.5983
-12.4908
1.04972
-1.433
12.542
12.7738
3.16249
2.63902
14.0953
-10.8391
13.1108
11.2664
1.03263
-2.87367
12.3343
6.10589
10.886
2.21487
14.241
19.5648
5.69424
9.69343
7.39853
2.7766
9.73045
4.06461
4.39304
7.29508
7.18208
-14.5258
-14.7851
1.67479
-5.06073
-20.5938
5.91533
-5.74018
-8.23966
14.4529
-0.108008
12.3036
-0.606663
-1.60029
-12.5413
-15.0503
-9.33721
-10.6059
0.329167
-12.0544
-11.955
5.24555
-1.99624
-2.99605
-1.74458
-0.256859
0.945628
16.3665
-9.53912
-2.95542
-2.04753
-18.0412
22.5786
-4.7844
-30.326
-23.501
-26.5634
3.14103
-13.9404
-15.4446
11.7714
10.7657
-9.0593
10.4989
-8.57477
-10.2241
0.376559
0.320318
0.288765
0.0771938
-11.4969
1.13131
3.74785
-4.73986
10.9774
-0.562752
-1.66532
-15.4669
16.3031
7.31874
10.6719
7.22203
7.04287
-22.0517
-12.3207
10.1875
-18.926
-6.14117
13.9378
14.2166
11.8356
12.8194
-15.3414
4.26976
2.01023
1.10002
10.4571
10.2076
8.97522
8.41612
9.11352
4.7156
11.7425
6.40796
-5.11724
-1.81279
-0.461872
-1.72002
-21.0132
15.955
-4.1926
4.41743
4.6765
-11.7388
-13.0172
23.1739
-18.6997
-20.1614
17.353
12.7004
-5.69001
2.35902
-5.56296
-6.05242
4.70801
12.2812
0.659239
-13.0456
1.9034
0.868595
2.27816
3.03403
16.2146
16.1669
-15.9789
0.782606
-6.00088
-5.81675
2.163
-7.33059
-11.2207
11.8787
-0.19783
0.670035
14.0042
13.9367
7.5337
8.00659
2.4645
2.89576
-0.64683
-1.17308
-1.60487
16.1478
-4.9341
16.8696
16.6059
17.0245
-9.27011
-9.76886
-10.9256
6.3696
-7.48912
13.7567
-7.23393
-6.21704
-7.56192
4.94926
-27.1585
-7.95408
10.0736
11.125
10.7651
13.8009
13.0826
12.5497
10.061
10.034
-12.8805
6.79439
12.0888
11.475
-7.27946
-27.9801
10.8207
-25.9901
-20.884
3.26884
4.04039
5.08876
5.59998
-18.4625
2.09262
3.15032
3.91875
12.4378
11.5843
1.23127
-2.17175
-2.78831
-0.923838
-0.316992
-17.0018
-15.8004
2.13419
1.15827
12.8753
11.6177
11.2546
4.66603
5.38023
9.59447
8.47426
6.68255
9.26712
8.87212
8.06218
8.27886
8.50803
10.5174
2.93278
2.70482
2.64435
-4.70185
14.4565
7.92511
8.42413
12.3031
-5.96035
16.2709
0.0429455
0.211904
-13.1164
-2.85208
-2.13937
-2.89886
-11.4945
-11.2725
-0.0824493
3.53568
2.79584
-3.07714
-1.97333
17.2512
9.21062
2.56839
3.44073
-4.48466
-14.1604
8.05862
14.7402
14.8412
9.51317
9.20166
-0.523313
-1.12987
-1.74758
-1.06691
-0.472981
5.07959
13.4365
12.5739
4.53444
16.6628
17.0374
17.0286
13.4479
13.6571
5.87644
12.955
4.59117
5.08854
-3.30019
-2.26942
11.7635
10.7968
2.44418
3.20682
9.7519
10.4998
-7.56186
1.31595
1.44427
1.39763
5.61327
-13.0453
-10.3582