/*--------------------------------*- C++ -*----------------------------------*\
  =========                 |
  \\      /  F ield         | OpenFOAM: The Open Source CFD Toolbox
   \\    /   O peration     | Website:  https://openfoam.org
    \\  /    A nd           | Version:  6
     \\/     M anipulation  |
\*---------------------------------------------------------------------------*/
FoamFile
{
    version     2.0;
    format      ascii;
    class       surfaceScalarField;
    location    "1800";
    object      phi;
}
// * * * * * * * * * * * * * * * * * * * * * * * * * * * * * * * * * * * * * //

dimensions      [0 3 -1 0 0 0 0];

internalField   nonuniform List<scalar> 
44611
(
1.52085
-2.14263
0.621787
1.52085
1.44609
-1.44609
1.93943
-0.493344
-1.31919
-0.70774
2.02693
-1.31919
-0.0920749
-2.17064
2.08635
-0.565506
1.29387
-1.29387
0.180629
1.85448
-2.17628
0.730192
2.37679
-0.340671
0.413102
-1.73229
-0.7956
-1.19868
0.7956
1.29075
-0.552133
-1.33585
0.552133
0.741742
-0.594112
-0.824373
0.824373
-1.17128
1.35191
-0.0104584
1.28966
-1.2792
-0.136966
-1.86037
1.99734
1.5223
-0.214933
-1.30736
1.2198
-1.2198
-1.09959
1.09959
-1.51175
1.51175
-1.19453
1.19453
1.50244
0.0198603
-1.92081
0.409056
-0.920298
-0.786284
1.70658
-1.62804
-1.26553
1.26553
0.124949
-1.42459
1.29964
-1.49374
1.49374
-1.27963
-0.219511
1.49914
-1.36982
1.36982
1.65518
-0.143428
-0.460646
1.51074
-1.05009
1.72125
-0.501452
1.32615
-0.214183
-1.11196
-0.700252
1.09736
-0.397104
1.18626
-1.46018
0.273927
-0.881157
0.881157
-1.14577
1.03965
0.106124
0.952252
-0.952252
1.19038
-1.32735
-2.2796
0.811492
-0.811492
1.01424
-1.22917
1.82573
-2.04066
-1.60604
-0.621571
-0.81861
-0.787429
-0.89911
0.89911
-1.04033
1.02987
1.92898
0.0933759
-1.4632
0.104287
-0.299206
1.21494
1.16186
1.73229
0.165939
0.531854
-1.21568
2.03429
-1.4632
-0.982755
-0.477427
1.29959
-1.29959
0.904428
-0.420142
-0.484287
1.33062
-1.14556
-0.185063
-0.802495
-0.652019
1.45451
0.00103299
-0.0797554
0.0787224
1.67779
-0.388132
-1.69494
-0.165434
-0.355965
0.90711
-0.551145
-0.0383465
0.0450462
-0.00669969
-0.13662
-0.610521
0.747141
-1.16014
0.459883
0.0116184
0.0598569
-0.0714753
-0.0325771
0.00739877
0.0251784
0.8563
0.213056
-1.06936
-0.00200143
0.00200143
1.47499
0.524535
0.240546
1.23445
0.798731
0.879058
-0.0230045
-0.00957263
1.23256
-0.504458
-0.728104
0.917956
0.314606
-1.07042
-0.62452
-0.264154
-0.806267
-0.980485
-0.476451
-0.908697
1.38515
0.00411814
-0.0424646
-0.00869244
0.0341422
-0.0254498
-0.728092
0.853041
-0.649613
-0.285023
0.934636
-1.17276
0.953249
0.000407051
-0.000407048
0.0910669
0.816044
0.995495
0.65061
0.863132
0.467486
1.15932
-0.296187
-0.0776714
0.636862
-0.559191
-0.364388
-0.479175
0.843562
0.410243
-0.74446
0.334217
1.14032
0.859682
-0.747506
0.756111
-0.00860478
-0.792335
1.06626
-0.889751
0.199058
0.690693
-0.888431
-1.11644
-0.843407
-1.43619
1.10756
0.3366
-1.44416
0.927784
-0.0714844
-0.199692
0.74679
-0.547098
-0.955832
-1.08483
-1.43228
-0.849532
-1.12114
-1.60993
0.760402
-0.867984
1.27704
-0.345772
0.806377
-0.460605
-0.980374
0.174108
-0.419141
-0.536633
0.955774
-1.30933
0.890191
-0.264944
0.829703
-0.56476
-0.832413
-0.0762843
0.753419
-0.617502
0.830558
-0.893235
0.594029
0.0492966
-0.0376782
0.0362746
-0.0449671
0.595724
-0.809907
0.848437
-0.682498
-1.4924
0.68148
-0.792505
0.111025
0.810925
-0.706638
0.90102
-0.0907526
-0.810268
-1.40009
0.000962107
-0.000962107
0.000962106
1.06826
-1.06826
1.07179
-1.07179
-1.1544
1.36181
-0.207411
0.625447
-1.07765
0.452207
-0.295057
1.36685
-0.899348
0.581596
0.317752
-0.929536
0.030188
0.831773
-0.623682
-0.208091
0.0292783
0.337263
-1.1296
-1.25361
1.25361
-0.440263
1.35822
-0.106498
-0.464162
0.00670302
0.457459
-0.153344
-0.310817
-0.642449
0.489105
0.371813
1.02242
1.4024
0.61612
-0.0200634
0.973312
-0.0779868
0.931028
-1.24858
0.359768
-0.838942
-0.282682
-0.934353
0.333916
0.600437
-1.11968
0.185331
0.0899631
-0.799788
-0.963906
-0.315293
-1.45725
-0.727058
-0.232635
1.72637
1.067
-1.20212
1.30825
-0.0630437
-0.681416
-1.0517
1.69509
-0.643384
0.0851515
-1.41024
1.35396
1.97574
-0.860177
0.860177
-1.64278
0.782601
-0.0056338
-0.002497
0.0081308
-0.0255947
0.0302326
-0.00463796
-0.00665557
0.00409937
0.00255619
0.0474347
-0.0572945
0.0098598
-0.00393727
-0.00422111
0.00815838
0.00414682
-0.00808409
-0.05552
0.00945375
0.0460662
-0.594138
0.294911
0.299227
-0.0637026
0.0492239
0.0144787
0.014982
-0.0643398
0.0493579
-0.00417509
0.00832191
-0.00497783
-0.000559381
0.00553721
0.0181877
-0.000696278
-0.0174914
-0.00177725
-0.0090072
0.0107844
0.00605402
0.00471576
-0.0107698
-0.00212217
-0.00548014
0.00760231
0.00507599
-0.00445529
-0.000620702
0.00796035
-0.00224511
-0.00571524
0.0134231
0.0125597
-0.0259829
0.0387305
-0.0253073
0.000972913
-0.00607036
0.00509745
0.00560914
-0.00463623
0.634866
-0.435808
0.0885822
-0.0455641
-0.0430181
-0.0187218
-0.0207667
0.0394885
0.0285641
-0.0487697
0.0202056
-0.00375456
0.00375457
-0.00652124
0.0017064
0.00481484
0.0332368
-0.0118714
-0.0213654
-0.0492103
0.0104553
0.038755
-0.0859001
0.0152735
0.0706267
0.00356266
-0.00823599
0.00467334
-0.00804498
0.00548071
0.00256427
0.10735
-0.0350305
-0.0723198
-0.00416201
0.0637208
-0.0595588
0.0451947
-0.0434842
-0.00171045
0.00156456
-0.0200361
0.0184715
-0.0587753
0.0156531
0.0431221
-0.0385849
0.0541596
-0.0155747
0.0032593
-0.00758272
0.00432342
-0.00589414
-0.00218996
-0.00593558
-0.00717753
0.0131131
-0.0101567
-0.042038
0.037876
0.0316981
-0.073736
-0.00374505
0.00991098
-0.00616593
0.032229
0.00848228
-0.0407113
0.0199155
-0.00586542
-0.0140501
0.00305534
-0.00305533
0.00919181
-0.0283872
0.0191953
-0.00700826
0.00436035
0.00264792
0.0619319
-0.0598018
-0.00213005
0.0306854
0.0322818
-0.0629673
0.056747
-0.0260616
-0.00459954
-0.00240872
-0.0201475
0.0212376
-0.00109016
-0.00792092
-0.0122266
0.00370707
-0.0108846
-0.00628852
0.00773655
-0.00144803
0.00446241
-0.00672243
0.00226002
-0.0242818
0.0392637
0.0207644
0.0107921
0.00739557
0.0181909
-0.0246649
0.0306926
-0.0060277
0.235802
-0.197757
-0.0380451
-0.0063957
0.00266122
0.00373448
-0.628595
0.343572
-0.0219583
0.0140374
0.0859454
0.464037
-0.549982
0.0552468
-0.0719062
0.0166594
-0.00352842
0.00619385
0.0129476
-0.0191414
0.00129153
-0.00129153
-0.0564345
0.473618
-0.417183
0.0133738
-0.0020896
-0.0112842
0.00829422
-0.00404277
-0.00425144
0.00514063
0.00281972
0.0091583
-0.0282451
0.0190868
0.0191525
-0.0219387
0.00278625
0.0108648
0.00828767
-0.0263601
0.0533881
-0.027028
0.00464425
0.00364997
-0.00245847
-0.00393723
-0.0125108
-0.0177302
0.030241
0.002112
0.00879995
-0.0109119
-0.00359216
0.00573271
-0.00214055
-0.00683169
0.00323953
0.00602023
-0.000287512
0.000433234
0.0151965
-0.0156297
-0.00926072
-0.0293958
0.0386566
-0.00979764
-0.0358277
0.0456254
-0.430484
0.355661
0.0748227
-0.0339593
-0.00462556
0.0183062
0.0309857
-0.0492919
0.016445
-0.00333194
-0.0215458
0.0214429
0.000102877
-0.0186873
-0.00285845
0.0273646
-0.0164998
-0.0500236
0.0297085
0.0203152
-0.00132801
0.00644351
-0.0051155
-0.00419892
0.0563223
-0.0521234
0.0577329
0.0503292
0.00599309
-0.00149929
0.0243203
-0.022821
0.0162831
-0.0158499
0.0147838
-0.00678664
0.0228384
-0.0160518
0.00530502
-0.0196212
0.0143162
-0.00936513
-0.00894687
0.018312
0.00989683
0.00654822
0.000531695
-0.00239865
-0.0273673
0.0188928
0.00847449
-0.0227095
0.0253919
-0.00268239
-0.0500768
0.0442847
0.000178683
-0.00669992
-0.00377739
0.00566222
-0.00188483
-0.0269302
-0.567207
0.0591409
0.0373873
-0.0965282
-0.0134649
0.00692932
0.00653556
0.0106337
-0.00710723
-0.00352642
-0.049741
-0.0250267
0.0747677
0.319099
-0.526824
0.207725
-0.00501542
-0.00514126
-0.0892914
0.223269
-0.133978
-0.918253
0.307732
-0.00557288
0.00636027
-0.000787389
-0.00780089
0.00710461
0.0340482
9.39757e-05
0.0256547
0.00839351
0.0244143
0.0073701
0.0138675
0.0126751
0.00411771
0.00974983
0.000852683
-0.0238572
-0.0166387
0.00664614
-0.0159642
0.00931804
-0.0155967
-0.001042
-0.00895059
-0.0250006
0.000168674
0.0248319
-0.0392887
0.0138389
-0.246546
-0.183938
-0.025707
-0.0379956
0.0232102
0.0309495
0.0316846
-0.389635
0.491697
-0.102062
-0.509267
0.500662
0.00166623
-0.00166623
-0.00602526
0.00257155
0.00345372
-0.0769425
0.0272015
-0.00165791
0.0468526
-0.433222
-0.485031
0.164246
-0.597469
-0.552157
0.0671259
0.00275117
0.0294779
0.0263157
-0.0269585
0.000642821
0.0418283
-0.0472544
0.0054261
-0.00716595
-0.0147728
-0.0139526
-0.00512973
-0.00964303
0.0577629
-0.142235
0.0844723
0.24488
0.220892
-0.465771
0.343793
-0.0989134
0.555108
-0.0179759
0.0218868
-0.00391097
-0.0159458
0.0228063
-0.00686051
-0.0339217
0.0446931
-0.0101448
-0.0490439
0.0591887
0.0365274
-0.000252723
0.0263825
-0.0352304
0.0283699
0.00350011
-0.0216538
0.00551359
0.00305091
-0.0085645
-0.00292081
0.00728464
-0.00436383
-0.0480926
-0.00111774
-0.0152053
0.0437694
0.0276816
0.0210246
-0.0487062
0.0366077
-0.030106
-0.00650171
0.0314072
-0.0303742
0.0329326
-0.0288145
0.0080477
-0.00233299
-0.00571471
0.510719
0.124147
0.58283
-0.072111
0.88602
-0.418534
0.0862315
-0.00764542
0.000960735
0.00668468
-0.00835439
0.00272058
-0.00972362
0.00671549
0.00300813
0.00172029
-0.0114439
0.0118876
-0.00517212
0.00487249
0.0195745
-0.024447
0.00957447
0.00294616
-0.0125206
0.00726669
-0.00805008
0.000783391
0.00559473
-0.00731015
0.00171542
0.00341722
-0.00719461
0.0127016
-0.0314233
-0.00878692
-0.00652868
0.0153156
0.00596832
-0.0147552
0.00731169
-0.0138404
-0.0209656
0.011393
-0.00468909
0.0310716
-0.00833385
0.0120409
-0.00698175
0.0118542
0.0238952
-0.489457
0.546035
-0.0565781
-0.0221316
-0.00382819
0.0259598
0.00136725
0.0182072
0.014379
0.0221059
-0.0766299
0.054524
-0.0339638
0.0560697
0.000517559
-0.00526113
0.00474357
0.00590567
0.000114558
0.00642323
-0.00514657
0.75871
0.00984839
-0.768558
-0.0515577
-0.512824
0.193834
0.31899
0.0361139
0.00571445
-0.00806132
-0.0354229
0.0280525
-0.0397705
0.0715667
-0.0317962
0.442695
-0.547791
0.105097
-0.0389902
-0.0299726
0.0689627
-0.0731486
0.0341585
-0.35764
0.592693
-0.235053
-0.576996
0.556933
-0.0594825
0.163911
-0.104429
0.108275
0.127527
0.00324321
-0.00311294
-0.000130272
0.254855
0.114753
-0.369609
0.261558
0.018562
-0.0169975
0.00909227
0.0247805
-0.0338727
-0.021652
-0.0122697
-0.0328018
0.0230041
-0.0165561
0.0501445
-0.0335884
-0.886122
-0.188235
1.07436
0.571517
0.373726
-0.945242
0.470331
0.287435
-0.757766
0.180658
0.289673
-0.507121
0.618146
-0.466191
0.630438
-0.306227
0.392172
-0.440563
0.362577
0.754749
0.011966
0.0212708
-0.0211243
-0.0035406
0.0306891
-0.0222068
0.00509439
0.0311813
0.00184745
0.0087862
-0.00757823
-7.20246e-05
0.00765026
-0.00573078
0.00871418
0.505931
-0.0418939
-0.0902278
0.447958
-0.357731
0.415703
0.00129589
-0.00207723
0.000781345
-4.00052e-05
0.00238923
-0.00234923
0.0589021
-0.767086
0.708184
0.00227075
-0.000206166
-0.00206458
0.162185
-0.104423
-0.0392198
1.17954
0.285657
-0.962665
0.677008
-0.00153111
-0.00222345
0.00218402
-0.00371512
-0.75375
0.339448
0.414302
0.573092
-0.859697
0.494166
0.365531
0.0879071
-0.0241863
-0.267897
0.498404
-0.230508
-1.21739
0.565368
-0.00170294
0.00170294
-0.696444
0.669514
-0.00869348
0.00409394
0.777436
-2.03104
0.749179
-0.758235
0.0090555
-0.554026
1.62229
-0.607723
0.695349
-0.0876259
0.385448
0.257349
-0.642797
0.828143
0.00241949
-0.00241949
-0.243487
0.778785
-0.535298
-0.732944
-0.466611
0.800526
-0.623642
0.037318
-0.0712817
-0.87475
-0.342637
-1.28211
0.821503
0.534967
-0.612638
-1.03481
0.47005
0.0458415
0.462546
0.878146
-1.34069
-0.829384
1.29193
-1.38341
-0.774787
0.354646
-0.689279
-0.0855084
-0.868436
0.00873927
-0.809534
1.33925
-0.814715
0.184846
0.394415
0.00149504
0.00266723
-0.00416227
-0.127933
0.363764
0.21393
-0.903209
-0.365373
0.152761
0.212612
-1.08284
0.62453
0.124649
-0.633269
0.00279151
-0.00301484
0.000223336
-0.955321
0.0327063
0.0830355
0.0234767
-0.46621
0.649176
-0.182967
-0.343188
1.47697
-1.82016
-1.015
-0.106139
0.92985
0.524664
-0.0198985
-0.0919641
0.0720656
0.828472
-0.509373
0.362262
-1.69364
1.39858
0.894827
-0.403501
0.210195
0.193306
-0.989554
1.84973
-0.737603
0.536087
0.201516
-0.261726
-0.475877
-0.206953
1.2447
-1.45165
0.00234183
-0.000675601
-0.304906
0.78147
0.045134
-1.31804
0.198352
-0.519306
-0.00138386
0.00138386
-0.0116072
-0.610213
1.54138
-0.179561
0.61184
0.0696832
0.0376671
-0.0242419
0.0565237
0.241014
0.114647
-0.162487
0.0109096
0.607358
-0.597509
-0.5558
-0.283142
0.901513
-0.418787
0.00244673
-2.72404e-05
0.646926
0.0328484
-0.479976
-0.589891
-0.0337505
-0.900512
0.310621
-0.534982
0.709176
-0.434091
0.548738
-0.717233
-0.266056
0.476251
-1.34628
-1.4897
0.649463
-1.04417
0.0548563
0.00189074
-0.253464
0.831849
-0.578386
0.040536
-0.101337
0.0606728
0.0406643
-0.0582205
-0.0431168
-1.18997
1.0519
0.138073
0.22794
-1.27211
0.828377
-0.361595
0.031567
0.229875
-0.261442
-0.086
0.117567
-0.00776693
0.022146
0.0161282
0.0166599
0.00482643
-0.393563
-0.569102
-0.619209
0.0925635
-1.55576
-0.0239425
-0.0616206
0.770561
-1.53052
0.759958
-0.877679
1.64824
-0.753083
0.212664
0.162469
1.22947
1.55576
0.170613
0.0552384
-0.0505756
-0.00466283
-0.00456338
1.64316
-1.02704
0.915054
-0.28199
0.00400673
-0.0959709
-0.0761854
0.0801922
0.87375
0.200607
0.688687
-1.0625
0.643963
-0.37381
-0.937327
0.478347
-0.651251
0.0366619
0.815447
0.533457
-0.574926
-0.895719
0.320793
-1.08483
0.537456
-0.0478424
0.119908
0.0323498
0.149917
-0.00379995
0.0035564
0.000243548
-0.00230491
-0.14429
-0.572942
-0.390836
0.0184787
1.58823
1.08678
0.00186944
-0.00466044
0.00279099
-0.00362369
0.00549313
0.00966276
-0.00566483
-0.00399793
0.00226349
0.00739927
-0.00353778
0.00653474
-0.00299697
0.00565202
0.000305079
-0.00595709
-0.00109625
0.00950229
-0.00840604
0.00684429
-0.00656279
-0.000281491
-0.00467722
-0.0023236
0.00700082
-0.000438317
-0.00559716
0.00603548
-0.00438503
0.0020768
0.00230823
0.00175883
0.00718257
-0.0089414
-0.0013664
0.0107599
-0.00939346
-0.0103316
0.00366393
0.0066677
-0.00120352
0.00977999
-0.00857647
-0.015483
0.0153099
0.000173068
-0.00673247
0.00337567
0.0033568
0.00994764
-0.0120513
0.00210363
-0.0173693
0.0120656
0.00530375
-0.0043746
0.00401489
0.000359704
0.00788233
-0.00924873
-0.0181812
0.00102898
0.0171522
-0.0103828
-0.00779834
-0.00702414
0.0029588
0.00406534
0.000290921
-0.00731506
0.00494065
0.00416547
-0.00910612
-0.0076479
0.000622526
0.00702537
-0.00259117
-0.00505673
0.000480741
0.00538305
-0.00586379
0.0094837
-0.0100995
0.00061577
0.00862552
0.000858177
-0.00798728
-0.00357681
0.0115641
-0.00551649
0.00507818
-0.00131547
-0.00482069
0.00613616
0.00283549
0.00426675
-0.00710224
-0.00770878
0.00710311
0.000605678
-0.00283624
-0.00487255
0.00622359
-0.00881475
-0.0102776
0.00187706
0.00840053
-0.00350183
-0.00677576
0.0012376
-0.00575198
0.00451438
0.00460624
-0.000619839
-0.0039864
0.00392983
0.000676408
-0.0175028
0.0302044
-0.00247264
0.00470702
-0.00223438
-0.00559016
-0.000613414
0.00620357
5.72923e-05
-0.00564745
0.00187583
-0.003324
0.00144817
0.0260035
-0.0406091
0.0146056
0.0265735
-0.00825367
-0.0183198
0.00234613
-0.00881833
0.0064722
0.0110842
-0.000838476
-0.0102458
0.00390228
-0.00271819
-0.00118408
-0.00751839
-0.00272597
0.0102444
-0.0140435
0.0091098
0.00493369
0.00498395
-0.0105851
0.00560114
-0.00578898
0.00113993
0.00464905
0.0143446
-0.00382726
-0.0105173
-0.00830008
0.0226446
0.000673439
0.0076395
-0.00831294
0.00303792
0.00777358
-0.0108115
-0.00686049
-0.00214104
0.00900154
0.00576483
-0.0121961
0.00643131
0.00848754
-0.00718453
-0.00130301
0.00295764
-0.00935108
0.00639345
0.0100948
-0.0226462
0.0125515
0.00237984
-0.00668226
0.00430242
-0.00697956
-0.000878501
0.00785806
0.0099758
-0.0054925
-0.0044833
-0.00825012
-0.000457841
0.00870796
-0.00675694
-0.000850922
0.00760786
0.00685238
-0.323329
0.316477
0.190988
-0.184136
0.0103041
5.92614e-05
-0.0103634
-0.00181362
-0.00810315
0.00991677
0.000856669
-0.00422425
0.00336758
-0.00923106
0.00600129
0.00322977
0.00189643
0.00875405
-0.0106505
-0.0113966
-0.00408637
-0.00465109
-0.00674553
0.0111983
0.0153752
0.00831307
-0.00831307
-0.00464065
-0.0045044
0.00914504
-0.00950157
-0.00590291
0.0154045
0.00645761
-0.0024428
-0.0040148
0.00749348
-0.00692208
-0.000571391
0.00499648
-0.00559155
0.00793882
-0.00234727
-0.00902425
0.00108927
0.00793498
-0.00398537
-0.00503888
-0.00814179
0.00815905
-0.00815905
-0.00200775
-0.00428484
0.00629258
-0.00803685
0.00764042
0.000396435
-0.00125467
-0.00678219
-0.00395031
0.00671573
-0.00276542
-0.00593618
0.0036558
0.00228037
0.0017525
-0.00768868
-0.00473768
-0.00252239
0.00726007
-0.0107718
0.00479757
0.00597423
-0.00946128
0.00987723
-0.000415954
-0.00532121
-0.00414007
-0.000157293
0.0180352
-0.0178779
-0.020031
0.0290716
-0.00904053
0.00472967
0.000346321
0.00799886
0.000704923
-0.00870378
0.00987379
0.00669205
-0.0165658
0.0289352
-0.0431315
0.0141963
-0.0089709
0.0105086
-0.0015377
-0.00553363
-0.0107688
0.0163024
0.00851376
-0.00538523
-0.00312852
0.00161136
0.0069024
-0.00432417
-0.00429532
0.00861949
-0.00728209
0.0102397
-0.0123681
0.00550763
-0.00446977
0.0106956
-0.00622585
-0.00123453
0.00341275
-0.00217822
0.00418754
-0.00615271
0.00196517
-0.00982718
0.00214938
0.0076778
0.0109378
-0.00353968
-0.00739817
0.00433267
0.00660517
-0.0055428
0.00132429
0.00421851
-0.00488086
0.00493815
-0.00904353
-0.000307554
-0.00600561
0.00325728
0.00485352
-0.0081108
0.00478951
0.00412722
-0.00891672
-0.0046219
0.00998525
-0.00536335
0.00823607
-0.00949074
-0.00885719
0.00779588
0.00106132
-0.00605972
0.00243603
0.0083439
-0.00300382
-0.00534008
0.0107918
-0.0116067
0.0008149
-0.00458857
0.00404448
0.000544094
0.00595657
0.00348345
-0.00944003
-0.00539256
0.014903
-0.00951046
-0.0157688
0.00538595
-0.00582114
-0.00829897
-0.00741837
0.0157173
0.013588
-0.0218869
0.0393022
0.00992177
-0.00843389
0.00614505
0.00228884
0.00669119
0.0010728
-0.00776398
0.0079835
0.00502826
-0.0130118
0.0307493
-0.0618043
0.031055
0.0481493
-0.0174
-0.00632547
0.00617705
0.000148426
-0.0242007
-0.0253589
0.0495597
0.11915
-0.0139308
-0.105219
-0.00692267
0.00801953
-0.00109686
0.0292544
-0.00386117
-0.0253932
0.0403961
-0.0111417
-0.00245619
0.00696121
-0.00450502
0.00130185
0.0103366
-0.0116385
-0.00526266
0.000565257
0.0046974
-0.000694126
0.00907767
-0.00838354
-0.00873817
0.0121308
-0.00339263
0.0164817
-0.0115465
-0.00493519
-0.000997326
-0.0046879
0.00568523
-0.00171668
-0.00382606
0.00554274
0.0055408
0.0048522
-0.010393
0.00569817
0.000607165
-0.00630534
0.0120019
-0.0073508
-0.00465107
0.0102322
0.00176966
0.00471964
0.00508737
-0.00980701
0.00826657
-0.00332592
-0.00103343
-0.00637564
0.00740908
0.00219165
-0.00771265
0.005521
0.0104072
-0.00814371
0.0101781
-0.00751967
-0.00265838
-0.00520169
0.000223865
0.00660395
-0.00357849
-0.00302546
-0.00012852
-0.0091821
0.0056036
-0.00336346
-0.00444902
0.00781248
0.0105748
-0.0123884
-0.00827405
0.00394987
0.00243809
-0.0075243
0.00508621
0.00600075
0.00712703
-0.00474719
-0.0109406
0.00317738
0.00776317
0.00637093
-0.00408133
-0.0022896
-0.00292665
-0.000838508
0.00376515
0.000485345
0.00459952
-0.00508487
0.00656188
-0.00607653
-0.00056384
-0.00812001
0.00868385
-0.0800989
-0.192648
0.272747
-0.0363795
0.0308232
0.00555627
0.0057858
0.000471929
-0.00625773
-0.00264809
-0.00764762
0.00265978
0.00498784
-0.00686878
-0.00677043
0.0136392
-0.00510779
-0.00879741
0.0139052
-0.00475842
0.00940421
-0.00464578
-0.00405071
0.0108267
-0.00677601
0.00569114
-0.00349824
-0.0021929
0.000650515
0.00504063
-0.00225815
-0.00211645
0.0015494
0.00691393
-0.00846333
0.00207775
0.00585969
-0.00793743
0.000360791
-0.00804666
0.00768587
0.00444278
0.0119452
-0.016388
0.000254381
-0.00769046
0.00743608
-0.0066226
0.00687698
0.00417471
-0.00658613
0.00241142
-0.00577794
0.00698696
-0.00120902
-0.00115174
-0.0046262
0.00661821
0.0046905
-0.0113087
0.413953
-0.220119
-0.00561092
0.0112411
-0.00563022
-0.0118774
0.00389011
-0.00998096
0.00707844
-0.00507855
-0.00199989
0.00497413
0.00121049
-0.00618462
0.00732677
-0.00591203
-0.00141474
-0.00122275
-0.00699494
0.00821768
-0.00106212
-0.00746503
0.00852715
0.00291995
-0.00923194
0.00631199
-0.00751883
-0.00719804
0.0147169
0.000285986
0.00691828
-0.00720427
0.000545018
0.00623285
-0.00677787
-0.000814795
0.0087983
-0.0108832
0.00360115
-0.00310966
-0.00876697
-0.00748353
0.00667078
0.000812753
-0.00366488
-0.00381865
0.00704919
-0.0068783
-0.000170885
0.00358243
0.00346676
-0.00698267
0.00957533
-0.00259266
-0.00786758
0.000884909
-0.00536801
-0.00436331
0.00973132
0.00532588
-0.0173048
0.0119789
0.0121969
-0.00784887
-0.00434806
0.00739103
0.00480591
-0.0414194
-0.0141006
0.0056898
0.00352774
-0.00921754
-0.0107767
0.00698297
0.00379371
0.00351543
0.00342388
-0.00693931
0.0164234
-0.00764081
-0.00878262
0.0109246
-0.0150273
0.00410277
-0.00433746
-0.00438813
0.00872559
0.000576021
-0.00968358
0.00910756
-0.00404213
-0.00775548
0.0117976
0.00957781
-0.00699287
-0.00258494
0.00408654
0.00554702
-0.00963356
-0.00231997
-0.00807792
0.0103979
-0.00498916
-0.00483276
0.00982192
0.00276065
0.00512487
-0.00788552
0.00702742
-0.00770703
0.000679606
0.00128194
-0.00971963
0.00843769
-0.0264732
0.0206457
0.00582749
0.00797628
-0.0344495
0.0104096
-0.00735374
-0.00305586
-0.00766041
0.00132057
0.00633984
0.00368037
0.00456296
-0.00824332
0.000919233
0.00318416
-0.00410339
0.0580217
0.0241331
-0.0821548
-0.0278784
0.00910412
-0.0085281
0.00500354
0.00163474
-0.00663828
0.000178049
0.00603221
-0.00621026
-0.0221172
0.015064
0.00705315
-0.0139378
-0.00817944
0.00238042
-0.00761529
0.00523487
-0.0411823
0.00047093
0.00849028
-0.00878916
0.000298881
0.00519473
0.00611767
-0.0113124
0.00711113
-0.00249728
-0.00461385
0.0198899
-0.0106981
0.0110067
0.00652889
-0.0175356
0.000701518
-0.00937081
0.0086693
0.00185462
-0.0130332
0.0111786
0.000165886
-0.0129659
0.0128
0.00515039
-0.00826144
0.00311104
-0.0103561
0.00347529
0.00688079
-0.00348542
-0.00541947
0.00890489
0.00306924
0.00551748
-0.00858672
0.00713548
-0.00684456
0.00449066
0.0038904
-0.00838106
-0.00951227
0.0044813
0.00503098
-0.0017948
-0.00771747
-0.00737381
0.00859343
-0.00121961
0.00855208
-0.000389854
-0.00816223
-0.0016797
-0.00202701
0.00370672
-0.00274918
0.0141324
-0.0113832
-0.000102374
0.0122724
-0.0121701
-0.000137119
-0.0104752
0.0106123
0.00772285
-0.0125917
0.00486887
-0.0113996
0.00329648
-0.00844925
-0.00295038
-0.00700791
-0.00494848
0.0119564
0.00336463
-0.00957696
0.00621232
-0.0080674
-0.00144882
0.00951622
-0.006518
-0.00882263
0.00177095
-0.00600755
0.0042366
-0.00323431
0.00494071
-0.0234145
0.0117703
0.0116442
0.00807767
-0.00129397
-0.0067837
-0.00591183
0.00681524
-0.000903412
0.014943
-0.00401843
0.00996425
0.00497874
0.012405
0.00878288
-0.00765103
-0.00113185
0.00202594
-0.0048444
0.0365424
0.0108349
-0.00359723
-0.00723766
0.00816768
-0.00928277
0.00111508
0.00106408
0.0071036
0.0084384
-0.00897023
0.000531834
0.00429438
0.00414402
-0.00329168
-0.0167394
-0.0115918
-0.00891429
-0.00782507
0.00802023
-0.00195536
-0.00606488
-0.00664675
0.00612303
0.000523715
0.00224416
0.00146635
-0.00371051
-0.013554
0.00616882
0.00738516
-0.00610807
-0.00553852
0.0116466
-0.0233507
-0.019219
0.0425698
-0.0103921
0.00609778
0.00429428
-0.00565494
-0.00473713
0.0110501
-0.00822638
-0.00282372
0.00302098
0.00776364
-0.0107846
-0.00869835
0.00760209
0.00213626
-0.00895442
0.00681816
-0.00682015
0.00529656
0.0015236
-0.00184574
0.00344575
-0.00160001
-0.00459765
0.0161888
-0.0115912
-0.0246834
0.0200858
0.138658
-0.24072
-0.184671
0.0652942
-0.0198234
-0.0454708
-0.0108153
0.00477267
0.0060426
-0.0118428
0.00102752
-0.00428408
-0.00572428
0.0100084
0.00558756
-0.00987163
-0.0123756
0.0216524
-0.00927684
0.0178571
0.027342
-0.00568957
-0.0112089
-0.0416117
0.0528207
0.0312532
-0.0424622
-0.00128074
0.00770396
-0.00441877
0.025101
-0.0206822
0.0125138
-0.0300833
0.0175695
0.00134749
-0.00859132
0.00724383
0.0183225
-0.00519316
-0.0131294
0.0152184
0.00310412
0.00540471
0.00509751
-0.0105022
-0.00540679
-0.010086
0.0190176
-0.0089316
0.00356341
-0.00528009
-0.00308334
-0.0388645
-0.0352223
0.0740868
0.0433739
-0.0657801
0.0224061
0.00480862
0.00614365
-0.0109523
-0.00276867
0.00757729
2.77789e-05
0.00611587
0.00300778
0.005153
-0.00816078
-0.00294261
0.00853248
-0.00558987
0.00608236
0.00193787
-0.0039876
0.00967741
-0.00252877
-0.00225076
0.00477953
-0.0105547
0.0143075
-0.00375283
-0.00628647
0.0150659
-0.00877941
0.01025
-0.00149594
0.00667317
0.011172
-0.00143683
-0.00973515
0.00389159
0.00418176
-0.00807335
-0.0116921
0.00658433
-0.00438011
-0.00683926
0.0112194
0.0092014
-0.00466588
-0.00453552
0.0018506
-0.00656417
-0.00422993
0.0107941
-0.00586265
0.00425929
-0.00848922
0.00317786
-0.00922488
0.00604702
-0.00634251
0.00952038
0.00585766
-0.00434957
-0.00150809
-0.00779526
0.00394154
0.00385371
0.008715
0.00128557
-0.0100006
0.00299167
0.00407696
-0.00706864
0.00474417
0.00568832
0.00855197
-0.0103292
-0.00825096
0.00317868
0.00507229
0.017543
0.0230607
-0.0406036
0.037158
-0.0194759
-0.0176821
0.000650134
0.0065987
-0.00724883
-0.00559545
0.00624558
0.00179479
0.00480391
0.00978868
-0.00463829
0.00354334
0.00555195
-0.0090953
-0.000173626
-0.00470723
0.00571642
-0.00154171
-0.00624894
-0.0115924
0.00936341
0.00222897
-0.0112467
0.0105526
0.00708651
-0.00304186
-0.00404465
0.00184729
0.0117407
0.011942
0.00555879
0.00618188
0.00679829
-0.0103001
-0.00146255
-0.00898775
0.0104503
0.0133104
0.00176996
-0.0150803
0.0211203
0.00957231
0.0336341
-0.00303034
-0.00558059
0.00861093
-0.00644908
0.00341875
0.00434099
-0.0049544
-0.00884125
-0.0287772
0.0376184
0.000485181
0.00790302
-0.0083882
0.0108748
-0.00867229
-0.0022025
-0.0167779
-0.000452447
0.0172303
-0.0445657
0.020798
0.0237677
0.0356118
-0.0261766
-0.00943516
0.00322734
0.00634649
-0.00957383
0.0131883
-0.0206066
-0.000188866
0.00627123
0.00486669
-0.00505556
0.00419811
0.00207312
0.00427293
0.00522936
-0.00533034
0.00960327
-0.00226369
0.00749305
0.00872879
-0.0226666
-0.00620951
0.00521219
-0.0060788
0.00390892
0.00216988
0.000612385
0.0222161
-0.0254025
0.00318638
-0.00675627
-0.00401554
0.00526243
0.00158186
0.00574317
0.00728003
0.00874782
-0.00661155
-0.00666811
0.00666811
-0.0383148
0.0116786
0.0266362
0.00527718
-0.00703772
0.00176054
0.00704814
-0.00164343
0.00429775
-0.00265433
-0.00192291
0.00192291
0.019092
0.018066
-0.00830091
0.00733989
0.00096102
0.0319364
-0.000986918
0.00671841
0.00433953
-0.0110579
-0.00256781
0.00928621
0.00181719
0.00794697
-0.00976416
0.00679749
-0.00328206
0.00886005
-0.00992216
0.0380476
0.018706
-0.0567536
-0.00554724
-0.00522399
0.0107712
-0.0135094
-0.00326847
-0.000404533
-0.0131049
0.0141656
-0.017434
-0.00634726
0.000766666
0.0256348
0.00187929
-0.0275141
0.0101952
0.0154396
-0.0270022
0.0288815
-0.00248485
0.00784694
-0.0053621
0.00291642
0.00538512
-0.00830153
-0.0039942
0.00399419
-0.00449391
0.00732654
-0.00283263
-0.00673902
-0.034217
0.017078
0.017139
-0.0120009
-0.00760541
0.00482777
-0.00482777
-0.00365561
0.00365561
-0.00303856
0.0127982
-0.00975961
-0.00113502
-0.00752565
0.00866067
-0.0086478
0.00636692
0.00228087
0.00105524
-0.00561047
0.00455522
0.00609625
-0.00143767
-0.00465858
0.0071515
-0.0108665
0.00940395
-0.00700205
0.00692943
7.26177e-05
-0.0043414
-0.00210768
0.00645725
-0.010508
0.00299991
-0.00299991
0.00464485
0.00362172
0.00525724
-0.0120691
0.00362417
0.00844497
-0.0148879
-0.00016722
0.0150552
-0.000102987
-0.0101397
0.0102427
-0.00704173
-0.00878251
0.0158242
0.00628181
-0.00409016
0.00284029
-0.00653287
0.00369258
0.0260647
-0.000491952
-0.0255728
0.0238705
0.0034715
-0.00735324
0.00829081
-0.000937568
-0.0115853
0.00471653
-0.0137901
0.00220481
0.01341
-0.00869345
-0.0100848
0.000713994
-0.00673711
-0.00334769
0.000693335
0.00597744
0.0177458
0.0101048
-0.0278506
0.00374465
0.00618325
-0.0099279
0.00736329
-0.0168842
0.00952088
0.00439039
-0.00439039
-0.0093705
0.00258397
0.00678653
0.00333462
-0.00862254
0.00528792
0.00291169
-0.00291169
0.00871972
-0.00569874
-0.0123327
0.0101557
0.00217699
0.00290766
-0.00724041
0.00433275
-0.0130887
0.0141176
0.00376195
-0.00722029
0.00345833
0.00642317
-0.0055263
0.00563054
-0.000104244
0.00585378
0.000264681
-0.00611846
-0.0209842
0.0240728
-0.00308856
0.0210259
-0.000242981
-0.020783
0.0101832
0.00512672
0.0103491
0.01249
-0.00390591
-0.0101376
0.00442038
-0.00832629
0.000215456
-0.010353
-0.00399301
0.0059845
-0.00199149
0.00392698
0.00248921
-0.00641619
-0.00571604
0.00571604
0.00422018
0.00388137
-0.00810155
0.00208011
-0.00208011
0.00623087
-0.0108968
-0.00819263
0.00796668
0.000225956
-0.26534
0.0601794
0.205161
-0.166184
0.244709
-0.0785245
-0.431524
0.304888
0.00978486
-0.00110595
-0.00867891
-0.00664041
0.000829411
0.005811
-0.00373276
-0.465518
0.321517
0.144001
-0.153079
-0.312439
-0.000981333
0.0112135
-1.82126e-05
-0.0148697
0.0139571
-0.00870432
-0.00525274
0.0139388
-0.00652048
0.00606653
0.000453949
-0.00452935
-0.00705883
0.0115882
-0.00715673
0.0061233
-0.00742455
-0.000942333
0.00836688
0.0222305
0.00408525
-2.30195e-05
-0.0209612
-0.0283294
0.0345918
-0.00626233
0.0120666
-0.00701999
-0.00307211
0.00307211
0.00184958
0.00631057
-0.00816015
-0.00584162
-0.00255134
0.00839296
-0.00399204
0.00375923
0.0027456
0.00436553
0.00667258
-0.0111303
0.0133554
-0.00222507
-0.00024359
0.0188214
-0.0185779
0.0213369
-0.0215805
-0.000481369
-0.00515927
0.00564064
-0.03458
0.00834545
0.0262345
-0.0290469
-0.00553303
0.0353021
-0.0269566
0.00441972
0.00259543
-0.00701514
0.00574401
0.00678297
-0.012929
-0.000201026
0.01313
-0.0103099
-0.00261914
-0.00273591
0.0551082
-0.0523723
-0.0150131
-0.0233017
-0.00495444
-0.00170113
0.00123326
-0.0052687
0.00403543
-0.000367142
-0.00606508
0.00643222
-0.00650694
0.0061398
0.00298135
0.0136476
-0.016629
-0.0142149
-0.00356164
0.0177766
-0.0112336
-0.00625152
0.00763397
-0.00138245
-0.00517872
0.00680975
-0.000955971
-0.0335046
0.000496257
0.0330083
-0.0146301
-0.0188745
0.0355251
-0.0350288
0.0217722
-0.019021
-0.00518632
-0.00121482
0.00121482
0.00445658
0.00115255
-0.0013056
0.00576218
-0.0142915
-0.0157917
-0.0187103
0.00149267
-0.00149267
0.00343408
-0.00343408
-0.00198667
0.00198667
0.00597813
-0.00118056
0.00124045