/*--------------------------------*- C++ -*----------------------------------*\
  =========                 |
  \\      /  F ield         | OpenFOAM: The Open Source CFD Toolbox
   \\    /   O peration     | Website:  https://openfoam.org
    \\  /    A nd           | Version:  6
     \\/     M anipulation  |
\*---------------------------------------------------------------------------*/
FoamFile
{
    version     2.0;
    format      ascii;
    class       volVectorField;
    location    "1800";
    object      U;
}
// * * * * * * * * * * * * * * * * * * * * * * * * * * * * * * * * * * * * * //

dimensions      [0 1 -1 0 0 0 0];

internalField   nonuniform List<vector> 
29884
(
(7.47589 0.0588841 -1.04444e-16)
(5.32168 0.0253298 9.00684e-17)
(5.41211 -0.115443 4.77835e-17)
(7.11048 -0.0759903 7.04353e-19)
(7.21648 0.103642 -2.85873e-17)
(5.7437 0.155782 6.80147e-17)
(7.88436 -0.117868 -3.46688e-19)
(7.38552 -0.00158498 4.22559e-17)
(4.69131 0.12145 2.52334e-17)
(7.13536 0.0178183 7.14617e-17)
(7.44373 0.00877566 -3.16061e-17)
(7.20165 0.195515 1.59369e-17)
(8.07922 -0.132145 -2.63347e-17)
(7.15795 -0.112838 2.4379e-17)
(7.18023 0.0980725 -3.25327e-17)
(4.43045 -0.0562728 8.43e-17)
(8.22166 0.0496477 -3.52542e-17)
(6.66387 0.195735 -5.93488e-17)
(6.51443 0.162974 0)
(4.17416 -0.00372513 -1.64889e-16)
(7.78989 0.209847 1.44777e-16)
(4.94066 -0.0377954 0)
(8.00611 -0.0624405 -3.84143e-18)
(7.11443 -0.0216372 0)
(7.0708 -0.0131721 0)
(7.59563 0.0435264 -2.52529e-17)
(7.84405 -0.0110661 0)
(8.01563 -0.0449509 8.40901e-17)
(5.1614 -0.0249253 8.37983e-17)
(5.15862 0.113235 7.47559e-18)
(5.39908 -0.00800506 -1.35704e-17)
(4.81252 0.0893097 4.90029e-16)
(7.98942 0.0356721 -2.48004e-17)
(7.44251 -0.0308142 0)
(7.27743 -0.0591013 -7.59365e-17)
(7.50835 -0.105129 6.05999e-17)
(5.0124 -0.0350018 8.13172e-17)
(7.54852 0.135984 9.6589e-18)
(5.35299 0.1469 -7.68458e-17)
(7.77431 -0.150945 -3.72488e-17)
(5.02097 -0.0500846 0)
(7.05714 0.071047 1.49937e-17)
(7.60359 0.195545 -4.70011e-17)
(7.2331 0.28284 -3.09203e-16)
(6.97375 -0.0161262 2.13253e-17)
(7.57181 -0.152888 -2.34288e-17)
(8.02127 -0.207515 0)
(7.67479 -0.114389 -6.60957e-18)
(4.80699 0.0345151 -8.87188e-18)
(8.36086 0.0913181 0)
(7.3743 0.125252 0)
(7.18442 -0.074095 4.10649e-18)
(4.7134 -0.151921 3.66486e-17)
(8.40782 0.0278563 1.02211e-16)
(7.1976 -0.0624923 -8.12118e-17)
(7.08443 -0.137804 6.19226e-17)
(4.40944 -0.018152 1.03056e-17)
(7.9783 -0.0546766 0)
(6.66107 0.0508404 6.39025e-17)
(6.89408 -0.142273 -1.01854e-16)
(7.76209 0.160157 -1.82451e-17)
(7.81093 -0.00972823 2.43259e-17)
(4.71671 -0.100599 0)
(8.13773 0.0523014 -3.75851e-17)
(7.12377 -0.069106 2.84195e-17)
(7.00963 0.0799624 -6.32371e-18)
(7.45126 -0.0423189 8.93369e-18)
(7.82668 -0.115279 5.95694e-17)
(7.4049 -0.0942293 -4.01021e-17)
(7.332 0.067591 5.42379e-17)
(7.24749 0.196406 4.1007e-17)
(7.67252 0.0660133 -1.35492e-17)
(7.51796 0.101947 0)
(5.63189 -0.138856 0)
(7.29966 -0.105089 -5.00292e-17)
(6.90855 -0.0926676 -1.78017e-17)
(8.13151 0.10535 0)
(7.87614 -0.123225 0)
(8.08262 -0.116779 0)
(5.09445 0.0362596 0)
(7.66911 -0.0762527 5.12689e-17)
(5.23285 -0.0517988 0)
(7.11344 -0.140204 0)
(7.01546 0.0939137 2.69258e-17)
(6.60238 -0.0560463 -1.88277e-17)
(4.53736 -0.49346 -9.08329e-18)
(7.35671 -0.00017901 0)
(7.60035 -0.0317305 0)
(7.24951 -0.108852 4.49584e-18)
(3.68192 -0.8337 1.82882e-17)
(7.18607 -0.197768 0)
(7.88533 -0.245725 -1.92608e-17)
(4.55787 -0.0859695 -5.18739e-17)
(3.35123 -0.705834 0)
(7.12194 0.126367 -4.25037e-17)
(1.62255 -0.360121 0)
(6.99611 0.0139673 -7.08148e-17)
(7.00704 0.0128902 9.36974e-17)
(7.47412 0.0549676 1.12541e-17)
(3.39844 -0.539894 0)
(7.01168 0.0371279 4.72665e-17)
(6.94229 0.073437 1.06483e-16)
(7.65514 0.0144333 0)
(7.74949 0.0185404 -2.75955e-18)
(7.35417 -0.116686 -4.85075e-18)
(8.12023 -0.117483 0)
(3.82842 -0.629015 1.48776e-17)
(3.71053 0.0541468 -3.71521e-17)
(7.12153 0.133506 -4.83782e-17)
(6.96833 -0.325254 0)
(7.39849 -0.20881 0)
(1.4801 -0.208886 5.53453e-17)
(7.24546 -0.0796976 3.06494e-18)
(7.14359 -0.117381 0)
(7.30047 -0.119326 -2.47642e-18)
(6.97373 0.109916 -2.70557e-17)
(7.16215 0.115487 0)
(7.12248 -0.223901 0)
(6.76257 -0.073551 0)
(6.64279 -0.309571 4.12867e-17)
(7.00361 0.006007 0)
(6.85222 -0.29893 2.6585e-17)
(7.31854 -0.156036 4.12377e-17)
(6.78427 0.195737 0)
(7.03541 -0.0245797 1.28166e-17)
(7.04658 -0.191386 -6.15623e-17)
(7.80208 -0.268702 4.73071e-18)
(7.95272 -0.0382942 1.55192e-17)
(6.8648 -0.220916 -4.56054e-18)
(6.98721 0.137844 0)
(6.7715 0.167868 1.29154e-17)
(6.94811 0.120472 -1.45642e-17)
(6.96189 -0.103738 4.06283e-17)
(8.13012 -0.116897 0)
(6.89144 -0.087843 0)
(7.46361 -0.0887291 0)
(7.64945 0.236368 0)
(7.34136 -0.109955 6.61755e-18)
(7.52967 -0.143866 -1.62371e-17)
(7.52966 -0.130039 3.35166e-17)
(7.38953 -0.114985 0)
(7.28047 -0.0144281 2.4825e-17)
(7.69745 0.142758 -1.82324e-17)
(7.73688 -0.228553 -9.36683e-18)
(7.97946 -0.184794 -1.02293e-17)
(8.00456 -0.210305 1.01029e-18)
(7.75376 -0.177566 1.89934e-17)
(7.4899 0.177265 5.38222e-17)
(7.81025 0.118119 -4.52333e-17)
(7.74835 0.207506 4.93305e-17)
(7.63933 0.125572 0)
(4.31115 -0.108561 -2.38875e-17)
(3.94783 0.0285481 0)
(7.90243 -0.143756 -1.37997e-17)
(7.82033 -0.220602 2.34499e-17)
(7.88425 -0.163876 0)
(7.92619 -0.185484 -7.24207e-18)
(7.81389 -0.205033 0)
(7.86494 -0.120541 0)
(7.90015 -0.177188 0)
(7.85975 -0.149564 -2.3621e-17)
(7.0388 0.0284738 3.44847e-17)
(6.95596 -0.0457626 -3.49767e-17)
(7.54663 0.191583 -8.72324e-17)
(1.11653 -0.0675442 -1.14906e-16)
(1.06515 -0.00919648 1.16028e-20)
(4.91671 -0.0752094 0)
(4.7246 -0.00677302 0)
(7.00799 0.0425643 -3.95149e-17)
(7.95546 0.194569 5.30197e-17)
(7.35673 0.0477263 -1.58441e-16)
(6.98061 0.104382 0)
(6.9736 0.0753119 0)
(6.87653 -0.0652179 -1.96021e-17)
(7.0248 -0.0635905 0)
(7.01884 -0.177611 7.79612e-18)
(6.82287 -0.258069 -6.89733e-17)
(5.16516 -0.0323633 7.5712e-17)
(7.07281 0.139135 -3.73053e-17)
(7.25013 -0.19518 -7.1371e-18)
(6.98976 -0.278636 -1.57136e-17)
(6.31632 -0.352796 -3.1859e-18)
(6.31347 -0.262082 3.95571e-17)
(6.43103 -0.198453 7.50415e-18)
(7.1647 -0.105623 9.33133e-18)
(7.26899 -0.130062 0)
(7.0652 -0.0227052 -5.50649e-17)
(6.9855 -0.000131171 3.59735e-17)
(7.29731 -0.237235 -4.19958e-18)
(6.98156 0.110552 3.0128e-17)
(7.37249 -0.171411 0)
(6.5604 -0.0686681 2.5752e-17)
(6.42609 -0.118983 -7.14203e-18)
(7.26091 0.159357 8.67499e-18)
(7.36206 0.127529 -3.41032e-18)
(7.03948 0.155066 0)
(6.84659 0.18166 0)
(7.37515 0.0544811 2.3992e-17)
(7.61658 -0.0178161 -7.03058e-18)
(7.46868 -0.12922 0)
(6.76971 0.0299962 0)
(7.59682 -0.0316802 0)
(7.53125 0.0593347 3.43604e-17)
(7.16894 -0.0111664 -3.44241e-17)
(7.3711 0.0701737 -9.77821e-17)
(6.56831 -0.286425 0)
(7.41018 -0.0733455 0)
(7.18818 -0.108809 0)
(7.32826 -0.0420531 0)
(7.84884 -0.11924 0)
(7.69564 -0.119103 0)
(7.87765 0.0654521 0)
(8.08179 -0.0804147 0)
(4.7535 -0.0767229 0)
(7.0556 -0.0964374 0)
(4.1038 0.951172 -3.19895e-19)
(6.32731 2.4771 -5.21421e-19)
(3.86221 -0.0595835 1.71445e-18)
(6.68475 2.5279 0)
(2.79559 -1.55768 -1.68201e-20)
(2.71624 -1.53191 1.42072e-17)
(7.40775 -4.27792 7.68322e-18)
(6.79311 0.318053 0)
(6.75066 2.19884 0)
(4.19134 -0.879358 -2.08763e-17)
(2.65904 -1.60433 -1.53409e-20)
(3.93069 -0.794092 2.88157e-18)
(3.05529 -0.570387 0)
(2.50782 -5.35569 6.07322e-18)
(7.69115 -1.38886 0)
(5.12185 -4.32219 -1.0507e-19)
(3.83935 -0.81597 3.23362e-18)
(4.17169 -0.199439 4.92195e-21)
(6.50447 -4.2113 -2.77499e-18)
(6.58985 -4.20574 -2.48496e-18)
(4.15907 0.0210307 5.86572e-19)
(4.10747 0.0438578 -7.24573e-19)
(6.7285 0.235317 -8.09764e-17)
(3.83672 -0.099821 0)
(5.64728 -3.88973 -2.84326e-18)
(5.97552 -3.80929 0)
(1.64325 -0.895116 0)
(4.0443 0.693958 -1.485e-18)
(6.10218 -4.23846 4.68041e-18)
(6.46888 -3.49845 -2.21268e-18)
(6.45711 1.84247 0)
(3.89467 -1.52426 2.86722e-18)
(3.85319 -0.511271 0)
(5.83564 -1.31254 3.72012e-18)
(7.08047 -2.36592 -1.50902e-17)
(6.6926 -3.68946 -4.69538e-18)
(6.43352 2.85941 1.39586e-20)
(6.3953 2.24938 1.69565e-18)
(6.37472 2.34017 -2.16023e-18)
(2.63456 -1.19855 0)
(2.68776 -1.40493 7.47361e-20)
(2.96272 -1.51306 -1.83148e-17)
(2.86466 -1.46113 -2.5756e-20)
(6.32889 -2.03632 -7.97601e-18)
(5.88919 -1.85102 6.30616e-18)
(6.77504 -1.91029 0)
(6.24807 2.44072 2.32756e-18)
(5.87235 -4.31923 -2.06847e-18)
(1.75129 0.743739 -6.05827e-17)
(6.18962 2.85197 0)
(3.69454 -1.35505 0)
(7.45322 -3.71963 1.65885e-17)
(6.5503 1.95553 2.11049e-18)
(6.59997 2.00154 4.90613e-19)
(3.69043 -1.26527 0)
(6.53934 2.46627 -5.14562e-20)
(6.51104 2.48141 7.18262e-20)
(3.00317 -1.42538 9.24313e-18)
(3.56866 -1.99404 4.51787e-19)
(3.45802 -2.17432 3.68435e-18)
(3.95125 -1.08295 4.24024e-17)
(3.73762 -1.04606 0)
(3.07524 -0.709264 0)
(3.18621 -0.778498 5.06377e-19)
(5.91243 -4.07739 2.15531e-18)
(3.99724 -0.275253 0)
(4.10017 -0.701598 -7.01662e-19)
(6.87254 -0.411783 2.06886e-17)
(6.48305 2.46628 0)
(6.58067 0.198888 5.51037e-17)
(6.36893 2.13416 0)
(6.41269 2.18093 0)
(6.32178 -4.59149 0)
(0.964406 -0.477853 8.36437e-17)
(6.87525 0.311211 -7.62817e-17)
(2.90566 -0.392813 -9.78882e-18)
(4.12301 -0.406915 2.42055e-18)
(4.15886 -0.268518 -1.14686e-18)
(5.88895 -4.19374 -1.29023e-18)
(6.52383 -4.59391 -1.10771e-18)
(6.53371 -4.55492 -3.50108e-18)
(6.28526 2.34534 3.41257e-18)
(4.11533 -0.480143 -3.90164e-18)
(4.10147 -0.624377 1.46695e-18)
(6.1501 -4.10932 -2.18177e-18)
(6.79304 -3.50028 0)
(3.94221 -0.974174 0)
(3.99365 -0.917084 0)
(3.94627 -1.06112 0)
(3.10958 0.454205 -1.73349e-17)
(3.81975 -1.75156 9.06601e-18)
(4.18888 -1.33842 0)
(6.13079 0.122432 -1.66306e-17)
(6.34022 2.33065 -5.49624e-19)
(6.3094 2.26811 -1.96752e-18)
(6.35106 2.27225 -2.21496e-18)
(6.3011 2.32586 -4.33411e-18)
(2.94915 -1.66146 -2.05762e-17)
(5.68845 -4.18468 8.76151e-19)
(5.75186 -4.22473 -1.88819e-18)
(6.58271 -4.54902 5.30574e-18)
(6.65271 -3.91009 0)
(4.0119 -0.639121 2.67877e-18)
(7.53103 -3.38165 -5.06975e-18)
(7.49284 -3.5597 -1.10042e-18)
(7.308 -3.00652 4.17218e-18)
(3.36842 0.129196 0)
(3.22926 0.366716 -1.7235e-17)
(3.21179 0.159587 0)
(6.66363 -4.63568 -1.98803e-18)
(6.50398 2.40571 7.78561e-20)
(3.0515 -1.92985 -1.37309e-17)
(2.97192 -1.73601 1.82381e-17)
(3.08512 -1.74918 2.20801e-17)
(2.90786 -1.92234 6.43738e-18)
(6.42939 2.39545 1.00592e-18)
(6.47624 2.37126 -1.37856e-18)
(6.45751 2.3509 3.03232e-19)
(6.4571 2.40648 3.57864e-19)
(4.03868 0.76218 2.87874e-18)
(4.00286 0.909137 -1.64461e-18)
(6.81322 0.283744 -2.54603e-19)
(6.74396 -0.87343 -3.28496e-17)
(2.87562 -0.727911 -1.99126e-17)
(2.85318 -0.96654 0)
(7.30967 -3.27095 -6.06708e-18)
(7.51127 -0.458799 -3.95468e-17)
(2.83805 -1.34289 5.78089e-18)
(5.82194 -0.845468 -2.05879e-18)
(7.10843 -0.240976 9.55653e-18)
(2.84383 -0.58293 0)
(2.94374 -0.569366 1.88337e-17)
(2.90943 -0.49789 6.72638e-20)
(2.88634 -0.622892 -5.43069e-18)
(3.5891 -0.0681283 3.17396e-19)
(3.58638 -0.246495 0)
(3.37829 -0.00404885 -6.77739e-18)
(6.54789 2.44043 0)
(6.5313 2.41853 0)
(6.57943 2.42418 1.20522e-19)
(3.28958 -0.438294 0)
(3.12402 -0.450948 3.26145e-17)
(3.07214 -0.101969 0)
(3.08929 -0.324492 -3.53132e-17)
(3.14877 -0.174282 0)
(3.40062 0.598153 -6.41345e-18)
(3.64146 0.288526 3.72329e-17)
(6.20052 0.172137 -5.99323e-17)
(6.75741 2.10561 -6.74574e-19)
(6.37452 2.36829 7.87473e-19)
(6.406 2.39207 -1.6159e-18)
(6.69251 -0.613309 6.15953e-18)
(6.74344 -0.394731 0)
(1.14658 0.421179 0)
(2.67426 -0.541617 -8.23354e-18)
(7.11411 -3.37822 0)
(6.81534 -3.56395 -1.42571e-17)
(7.10456 -0.258802 -2.17929e-17)
(7.12998 -0.243827 1.6996e-17)
(7.06206 -0.294293 0)
(6.25966 2.49116 1.17953e-18)
(6.31111 2.55532 5.67028e-19)
(6.94968 -3.96192 4.96352e-19)
(6.55175 -4.61282 0)
(6.61985 -4.62538 2.75716e-18)
(6.53941 -4.65066 2.83549e-18)
(5.25164 0.242508 9.96355e-17)
(6.5067 -0.478083 -5.51086e-17)
(6.52421 -0.59632 0)
(6.59483 -0.405877 -2.4154e-17)
(6.26778 -3.98363 0)
(6.44836 -4.01597 5.70023e-18)
(6.352 -4.08779 -1.26231e-20)
(6.32534 -3.96659 -4.86973e-18)
(4.22464 -0.346279 0)
(3.9779 -0.114788 -2.11766e-18)
(3.90129 -0.319634 -3.25331e-17)
(4.23753 -0.202168 0)
(6.55514 -4.06968 2.64736e-18)
(6.61439 -4.15916 2.63833e-19)
(6.65689 -4.01575 -1.77789e-18)
(4.08518 0.454563 2.45237e-18)
(4.02546 0.344417 0)
(6.37995 -3.59278 0)
(6.14336 -3.74679 -4.57545e-18)
(3.93671 0.42908 -5.43446e-19)
(3.64049 0.795755 -8.25386e-18)
(4.29813 -0.534167 -5.313e-19)
(4.0483 -0.644955 1.79462e-17)
(4.1985 -0.666036 -1.14352e-17)
(4.21993 -0.432769 1.03574e-17)
(3.18353 -2.77558 -2.49497e-18)
(6.6796 0.256755 9.86451e-18)
(6.6677 0.228068 0)
(6.8813 0.14276 0)
(6.81503 0.175931 5.54242e-18)
(4.01627 1.17154 0)
(4.06755 1.03618 0)
(2.88643 -0.181309 -2.34009e-17)
(2.87618 -0.063671 1.56599e-20)
(2.80268 -0.208165 1.0772e-17)
(3.38049 -1.25053 0)
(6.74233 -1.78273 0)
(3.88615 1.62407 -9.39229e-20)
(4.01138 1.49134 -1.95083e-18)
(3.96948 0.985129 -1.57238e-18)
(5.53543 -3.94852 0)
(3.1537 -1.1862 9.09837e-18)
(3.23386 -1.05175 1.79176e-17)
(3.01954 -1.1454 0)
(3.55879 -0.504604 0)
(3.80969 -0.332507 4.21147e-17)
(3.64245 -0.298084 -5.17918e-18)
(3.78747 -0.499014 -3.06569e-17)
(3.10879 -1.454 1.79448e-17)
(3.27231 -1.33625 0)
(3.17506 -1.28721 -1.88522e-17)
(3.23805 -1.46548 0)
(7.61346 -0.404411 1.41589e-17)
(3.68678 -1.40929 0)
(3.48245 -1.27671 0)
(3.65493 -1.21199 0)
(3.49395 -1.43166 1.49929e-17)
(7.04004 -2.62895 0)
(7.27314 -2.48094 -8.40024e-18)
(3.84694 -1.18645 -8.43516e-19)
(3.92931 -1.10707 0)
(3.91772 -1.18915 7.59683e-19)
(3.86457 -1.11466 0)
(6.90615 0.0811974 3.49893e-19)
(6.87039 0.0164494 0)
(6.52412 0.3189 3.24538e-17)
(6.88697 -3.89527 2.36225e-19)
(6.76837 -3.75448 4.33339e-18)
(6.9289 -3.80065 3.86268e-18)
(6.73323 -3.87102 4.75832e-18)
(6.87931 2.07616 0)
(7.25211 0.44443 -2.8168e-17)
(4.52584 -1.53769 1.85744e-17)
(4.61301 -1.24309 -3.42771e-17)
(6.99376 -0.34148 1.71021e-17)
(7.08921 -0.270879 -1.15776e-18)
(7.01377 -0.31487 -1.12294e-17)
(6.86443 1.3688 2.09799e-18)
(4.05887 -0.199831 -3.32446e-17)
(2.09067 -0.193135 0)
(6.09369 -0.465801 -2.31923e-17)
(6.21092 -0.453063 5.32865e-18)
(6.4358 2.93089 -8.15313e-20)
(6.31182 -4.21245 0)
(6.35107 -4.13825 -2.19874e-20)
(6.42006 -4.17042 3.26224e-18)
(6.27467 -4.14589 2.90994e-18)
(4.29048 -1.2245 0)
(4.50863 -0.910324 -5.91565e-18)
(4.31559 -0.96151 0)
(4.51558 -1.15422 3.76847e-17)
(6.90492 0.113675 0)
(6.91441 0.0772717 1.30907e-17)
(6.903 0.0951562 0)
(7.00338 0.0732742 5.28169e-19)
(7.00016 0.0924123 -1.59557e-17)
(7.56337 -0.180398 0)
(7.22814 -0.221986 -4.86031e-18)
(7.36423 -0.22056 4.99048e-18)
(7.40489 -0.178496 0)
(6.64161 0.185645 0)
(6.75401 0.0938367 -6.91329e-17)
(6.72129 0.164974 4.94954e-18)
(6.65642 0.135715 4.26768e-17)
(6.07447 -4.19958 -4.91555e-18)
(5.99612 -4.10996 0)
(5.96861 -4.1893 0)
(6.09874 -4.14402 0)
(6.28603 2.42685 1.19726e-18)
(6.31932 2.45094 -6.64056e-19)
(6.30612 2.3876 1.00111e-18)
(2.84986 -1.04806 0)
(2.75866 -1.15282 7.03131e-18)
(2.7659 -1.07174 -7.41207e-18)
(2.85542 -1.14789 -5.6859e-18)
(6.51747 0.213275 -9.20547e-18)
(6.39877 0.244047 3.66782e-18)
(6.46586 0.187271 9.19194e-17)
(2.27814 -0.300183 -2.18128e-17)
(2.10441 -0.0164364 2.35633e-17)
(6.94263 0.148836 0)
(2.14283 -0.195685 -9.8065e-19)
(5.40353 0.117958 -1.19427e-16)
(6.99572 0.0210052 4.48311e-17)
(7.01993 0.0764118 1.88561e-17)
(2.2511 -1.11841 -6.89938e-18)
(2.49006 -1.1747 1.26849e-17)
(7.01153 0.117485 5.5842e-17)
(7.01033 0.0850052 6.09923e-17)
(7.00902 0.0921931 -2.00949e-17)
(6.95842 0.205004 8.11817e-17)
(7.24789 -2.32054 1.57106e-17)
(7.00342 0.244163 0)
(6.05846 -0.0856238 1.52352e-17)
(1.54655 -0.260211 -2.72518e-20)
(2.07942 -0.317512 0)
(6.7787 0.23609 -5.62588e-17)
(3.75432 -1.21129 0)
(7.43547 0.0160511 -4.68062e-17)
(6.99973 0.144433 4.20807e-17)
(6.79835 -0.0138136 0)
(7.86489 -0.418215 0)
(7.33894 0.33782 0)
(7.32432 0.411101 3.15802e-17)
(1.68516 0.49875 2.03064e-17)
(7.73026 -0.291826 7.6785e-17)
(7.66833 -0.354754 0)
(7.13878 0.176773 -5.62712e-18)
(6.85227 0.28102 0)
(7.39923 -2.5252 8.5941e-18)
(6.09569 -0.0729875 1.33822e-17)
(7.17087 -0.167576 -1.20754e-18)
(7.11153 -0.21609 3.44551e-18)
(7.15344 -0.194156 4.7301e-19)
(7.56976 -0.230841 0)
(6.65291 -0.439822 -6.10234e-18)
(6.63039 -0.552663 8.42011e-18)
(8.09456 -0.225038 3.65335e-17)
(8.14455 -0.138375 -3.71468e-17)
(8.06103 -0.132607 8.08937e-17)
(6.95788 -0.126067 2.00688e-18)
(6.86346 -0.103735 2.17086e-18)
(6.97561 0.181713 2.398e-17)
(6.9706 0.156007 2.35194e-17)
(7.00055 0.0233974 2.51217e-17)
(7.00303 0.0371064 5.49121e-17)
(6.41944 -0.364054 0)
(3.24772 0.513836 0)
(6.79478 -0.446094 0)
(6.77224 -0.564274 0)
(7.14349 -0.167701 5.39017e-19)
(6.98386 0.25852 -2.45745e-17)
(6.31187 -0.0862922 -8.19396e-18)
(7.00354 0.172162 -4.31243e-17)
(6.9934 0.212589 0)
(6.99249 0.194052 9.33104e-19)
(2.1177 0.320763 0)
(6.93664 0.115879 -1.28105e-17)
(6.94639 0.104587 1.26533e-17)
(7.47604 -3.3532 7.53218e-18)
(7.40004 -3.028 0)
(7.43748 -2.91294 3.08325e-18)
(7.39809 -0.375098 -6.75442e-17)
(7.1667 -0.0551513 0)
(8.27618 -0.0266257 0)
(6.61756 -0.0614404 -2.53888e-18)
(6.57357 -0.0549003 -1.86719e-17)
(6.86809 -0.0591487 2.62866e-17)
(4.64389 -0.255983 6.33923e-17)
(4.85589 -0.253791 0)
(7.50108 -0.396571 -7.80934e-17)
(7.44445 -0.368798 6.13429e-17)
(8.06807 0.0351425 -3.44616e-17)
(8.16648 -0.119379 0)
(6.02176 -0.153568 0)
(7.06669 -0.00457701 0)
(7.1801 0.390201 1.07504e-17)
(7.15846 0.340211 0)
(8.06734 -0.138559 0)
(8.27252 -0.105343 -2.23751e-17)
(1.74768 0.560187 0)
(7.11377 -0.247732 -8.79508e-19)
(7.25166 0.00871183 0)
(4.61688 -0.734581 -3.05519e-17)
(7.22288 0.122961 3.60919e-19)
(7.23267 0.0809935 4.38901e-18)
(1.03511 -0.0876031 -7.95e-17)
(3.72377 0.436347 1.52494e-17)
(3.57124 0.620219 -9.51998e-18)
(6.79816 0.213709 4.96754e-17)
(6.99741 0.0541694 -2.34552e-17)
(6.99264 0.0727536 -2.47242e-17)
(5.34754 -1.00145 -3.1779e-17)
(6.49737 2.02109 -1.90461e-18)
(6.1551 0.0132688 -3.47237e-17)
(6.0296 -0.0395936 0)
(2.71743 -1.21867 1.23803e-17)
(2.7451 -1.31649 -1.25464e-17)
(6.66076 0.0827682 -4.30928e-19)
(6.55194 0.0022039 7.30902e-17)
(6.65115 0.015604 0)
(6.9997 0.0939129 5.07715e-17)
(7.00296 0.12626 1.96959e-18)
(2.47735 0.650838 0)
(6.96578 0.249471 -5.15869e-17)
(6.60817 0.244028 -5.38009e-17)
(6.57634 0.315362 -3.20597e-17)
(6.8658 0.2349 9.60609e-17)
(6.90405 0.235686 -6.91573e-17)
(6.92092 0.199555 -2.74802e-17)
(7.30007 0.0559874 -5.39656e-17)
(6.27193 -0.0138299 2.36512e-17)
(6.38785 0.0468766 -5.82761e-17)
(6.17072 -0.174255 -1.34836e-17)
(6.28532 -0.0935296 -8.25584e-17)
(7.5194 0.0101614 0)
(7.66924 0.0761498 -3.09342e-18)
(7.17681 -0.142508 -2.12106e-17)
(7.87435 -0.00399076 5.46069e-17)
(6.59133 2.08722 1.1972e-18)
(6.98107 0.137686 3.26546e-18)
(7.0448 -0.316284 0)
(7.08365 -0.267331 6.13313e-18)
(4.32922 -0.438613 0)
(4.63562 -0.470917 7.03601e-17)
(7.46838 0.186595 -5.22644e-17)
(7.82311 0.155824 -2.64249e-17)
(7.52374 0.116981 -9.6431e-18)
(7.43791 0.139251 6.20159e-18)
(5.66476 -0.116784 0)
(5.47026 -0.151168 0)
(3.45717 -1.5295 -2.08198e-17)
(3.25735 -1.54463 0)
(3.17988 -1.71659 -1.76672e-17)
(2.82214 -1.68232 -1.54862e-17)
(7.01671 0.0539633 -7.2855e-18)
(6.73293 0.203366 0)
(6.81281 0.191033 0)
(7.52196 0.0277644 0)
(7.85709 0.0346288 -6.34684e-17)
(4.06126 0.22846 -2.82673e-17)
(4.25563 0.183649 2.3882e-17)
(8.34441 0.0808072 -1.50878e-17)
(8.21276 0.14393 -1.9019e-16)
(8.07008 0.0427672 -7.15347e-17)
(7.14427 0.0789942 0)
(7.70577 0.235972 0)
(7.03297 0.0818519 0)
(7.4189 -0.0496041 0)
(7.02389 0.186797 -4.68766e-16)
(4.90625 0.0320332 5.28251e-16)
(7.45794 0.176572 8.73149e-17)
(7.4152 -4.01401 0)
(7.48792 -3.86 0)
(6.98834 0.0254248 -2.43502e-17)
(6.9522 0.0473319 -5.74177e-17)
(7.02186 0.0420786 1.89375e-17)
(6.93702 0.061359 8.35472e-17)
(7.9012 -0.259347 6.22307e-17)
(5.01422 -0.0322818 -4.45569e-17)
(5.18007 -0.0952659 -5.70004e-17)
(5.34658 -0.00539122 8.93622e-17)
(6.89442 0.123708 0)
(6.88251 0.147146 0)
(6.85322 0.182116 0)
(6.87444 0.173536 -2.83961e-17)
(6.83327 0.215109 0)
(7.00136 0.0626291 3.76393e-17)
(7.31124 -0.0713816 5.55158e-17)
(7.02351 -0.124499 -4.72659e-17)
(7.56672 -0.366281 1.05475e-16)
(7.65984 -0.300042 -7.05432e-17)
(7.63895 -0.278919 -6.50778e-17)
(7.61664 -0.262107 0)
(7.44702 -0.277409 2.46369e-17)
(7.51914 -0.302723 -2.45655e-17)
(4.76958 -0.079113 -1.95255e-17)
(6.90677 -0.0364821 -6.97326e-18)
(7.81918 -0.230443 2.26974e-17)
(4.99766 -0.405801 0)
(5.17017 -0.349388 -2.53571e-17)
(5.37266 -0.353355 -4.37452e-17)
(3.19386 0.459348 9.11429e-18)
(3.21895 0.518113 8.02269e-18)
(6.39611 0.105938 2.86643e-17)
(6.30483 0.136058 0)
(3.45931 -0.874548 -3.15772e-18)
(3.37574 -1.04443 0)
(7.69684 -0.100086 -1.58072e-17)
(7.85129 0.0308906 0)
(7.77779 0.110403 3.02024e-18)
(3.7712 0.880406 3.93765e-18)
(3.72482 0.870829 3.75192e-20)
(5.1574 -3.20001 4.85459e-19)
(5.17241 -3.28451 -4.45183e-19)
(2.62502 -0.908688 0)
(4.0422 1.8919 -1.18761e-18)
(7.96105 0.200733 -7.05079e-20)
(5.94445 1.0825 0)
(6.5476 0.973194 8.15469e-20)
(6.23648 0.909831 -2.54198e-19)
(2.51464 0.437937 0)
(6.00444 -2.25625 -3.72552e-19)
(9.50875 1.12325 -1.04364e-18)
(8.03745 0.438439 2.96822e-19)
(9.02235 -0.305976 2.36192e-18)
(6.55906 3.29382 -1.21766e-19)
(2.62632 0.461026 4.15976e-18)
(5.50512 -4.27667 9.25196e-19)
(6.99976 -4.82436 0)
(3.74495 -0.751739 0)
(9.44108 1.10711 0)
(5.43356 -4.19218 0)
(5.50989 -4.23225 0)
(6.13036 2.13586 5.08212e-20)
(6.13407 2.15474 0)
(6.49405 0.654367 1.58052e-19)
(7.13845 0.860698 2.71307e-20)
(7.13332 0.902875 -3.04225e-20)
(5.97788 1.00663 1.69847e-19)
(7.42751 -1.15974 1.40645e-19)
(7.45615 -1.24703 7.11414e-20)
(5.95512 -4.61418 9.87956e-19)
(6.27475 0.895838 -1.43934e-20)
(6.33892 0.858524 0)
(7.57783 1.04975 1.72822e-19)
(7.48211 0.789377 -8.01689e-21)
(7.48404 0.826535 -2.41116e-19)
(7.18634 0.906337 0)
(6.60727 -2.15829 0)
(6.60428 -2.10222 -8.67869e-22)
(3.52363 -2.28182 2.1286e-18)
(6.40848 1.07085 1.11037e-19)
(6.40387 1.03958 -2.95456e-20)
(5.40361 -3.93798 0)
(1.54363 -2.06197 3.42073e-17)
(3.92291 1.75263 8.2261e-19)
(3.9786 1.78395 -1.54946e-20)
(2.54013 0.0299981 4.41868e-18)
(4.03535 -1.6589 -1.938e-17)
(6.03815 2.58519 4.94836e-19)
(8.69406 0.831481 3.9634e-19)
(6.63088 -4.77878 -2.35595e-19)
(2.34757 -0.956445 -1.58008e-18)
(6.67675 2.27545 0)
(6.77675 2.48595 -4.91427e-20)
(6.15954 -2.42961 1.60869e-19)
(3.40747 1.37376 -1.83312e-20)
(6.98295 -4.77057 -3.39308e-19)
(7.00047 -4.75836 8.62187e-19)
(6.14467 -1.55135 0)
(7.26188 -1.4283 0)
(7.07822 -1.69938 -1.47024e-19)
(6.96421 2.92409 -2.62191e-19)
(7.27337 0.636919 -1.08692e-19)
(7.33944 -1.55186 9.11634e-21)
(6.34805 2.32159 0)
(4.88613 0.905879 0)
(8.43987 0.274188 0)
(6.04085 -2.385 -1.06804e-19)
(2.8737 -3.45417 -2.52505e-20)
(2.99313 -3.23627 1.36944e-18)
(6.80209 -0.796924 0)
(6.81499 -0.899937 9.38285e-18)
(6.33248 -4.70428 -1.04302e-18)
(6.9205 2.73056 -1.3066e-19)
(3.35412 -1.88514 1.32626e-18)
(7.91157 0.739792 -5.15587e-19)
(5.941 -4.66051 0)
(6.50008 3.33811 0)
(6.43694 3.30018 7.17284e-20)
(6.08692 2.63646 0)
(5.02568 -3.24398 -4.43456e-18)
(6.59978 3.72616 0)
(6.74488 2.81417 5.36865e-20)
(6.65522 1.0335 0)
(4.19671 0.971889 5.85795e-19)
(4.1735 0.931066 2.88222e-19)
(6.16817 0.690733 4.89973e-19)
(7.8211 0.776444 0)
(7.8094 0.8191 0)
(7.89512 0.785956 5.09274e-19)
(5.62161 -2.74405 9.10952e-18)
(6.95618 1.11615 6.58015e-22)
(8.22337 -0.491548 0)
(8.19894 -0.407837 -1.04958e-19)
(2.3215 -2.0078 5.38814e-18)
(6.88362 0.878281 -1.42422e-20)
(6.9048 0.906666 0)
(2.69373 -0.130942 6.48185e-18)
(2.75556 0.036584 0)
(8.46574 -0.199858 -8.10886e-19)
(8.45534 -0.146976 -5.34069e-19)
(6.24448 3.34037 3.13716e-21)
(7.09823 -4.77058 3.78483e-18)
(3.85148 -0.886236 1.73936e-18)
(6.81617 2.37172 1.80441e-20)
(6.76127 2.69536 -2.02917e-19)
(6.38069 2.46118 1.47381e-18)
(7.82011 -0.762181 -6.75138e-21)
(2.66655 -4.46524 6.37472e-18)
(7.05406 0.914639 -1.95167e-20)
(7.05386 0.87865 1.08921e-20)
(7.61426 3.19792 3.92682e-19)
(7.27453 -1.57837 0)
(7.13142 -1.64976 8.20737e-20)
(5.72855 -4.58288 1.36411e-18)
(1.62458 -1.38626 -6.77012e-18)
(4.26342 1.48353 2.20243e-18)
(8.27981 -0.810867 9.18581e-19)
(5.62692 -2.68389 -2.51529e-19)
(5.63734 -2.75507 6.16485e-19)
(4.09441 1.60055 -9.30154e-19)
(4.02276 1.73892 -1.23566e-18)
(7.36307 -1.47982 -8.07984e-21)
(7.34114 -1.43057 6.31218e-20)
(7.43874 -4.07721 0)
(7.95006 -4.96649 0)
(7.69605 -0.69047 2.67482e-19)
(8.1401 -0.403975 8.21414e-19)
(8.20397 0.949756 0)
(3.70606 0.960875 -3.70757e-18)
(7.41481 0.993788 0)
(7.79298 -3.18442 9.70681e-19)
(2.35499 -2.07522 2.05675e-17)
(7.74892 -4.29469 0)
(6.49032 2.28208 -5.71817e-20)
(5.38481 -4.19623 -3.46825e-19)
(5.39507 -4.21658 1.44557e-18)
(6.26362 2.36932 0)
(6.29724 2.36202 -3.57842e-19)
(6.78857 2.25493 0)
(4.51393 -0.0347692 0)
(6.43503 0.593227 -9.82913e-20)
(9.11761 -2.69988 1.52995e-18)
(5.94454 -2.38127 0)
(6.60147 -2.75656 0)
(6.61071 0.842179 -8.77914e-20)
(7.15242 -4.38369 8.34089e-20)
(6.66789 -0.895055 1.70055e-17)
(6.93562 -1.19482 2.67451e-20)
(7.50339 -4.90945 -2.5202e-18)
(7.56597 -4.89238 0)
(6.04865 1.31218 0)
(2.17883 -4.09264 1.0014e-17)
(3.35352 0.632107 -1.85551e-18)
(6.75799 3.43782 2.30778e-19)
(6.34117 -2.0869 1.13883e-19)
(6.10783 3.17905 0)
(4.22314 1.34062 8.30744e-19)
(4.29575 1.25807 1.58653e-18)
(7.24635 -0.711661 -3.5889e-19)
(5.871 1.10109 3.14491e-19)
(7.01615 -1.47001 -1.05048e-20)
(7.02208 -1.54466 1.49016e-19)
(7.74869 1.09345 -2.0318e-19)
(6.53233 0.618136 -1.70851e-19)
(6.90522 0.814137 0)
(6.99151 0.80766 7.0781e-21)
(5.08419 -3.30968 0)
(4.9085 -3.35415 0)
(3.91432 -0.724511 0)
(2.6777 0.575909 -3.40308e-18)
(2.64019 0.539651 0)
(2.64972 0.686612 0)
(7.41495 -0.201693 1.03673e-19)
(6.89496 2.69449 4.59697e-20)
(7.61978 3.25193 2.24642e-19)
(4.01249 -1.54132 0)
(3.95232 -1.56258 7.51422e-19)
(4.91754 0.875134 0)
(6.64928 2.30982 9.01578e-21)
(4.26392 1.7114 0)
(2.54851 -0.906642 4.48836e-18)
(4.73108 -0.037985 2.28127e-18)
(4.78831 -0.0513738 -9.80296e-20)
(7.90607 0.613798 -4.89744e-19)
(6.81119 0.648341 7.84039e-18)
(6.69337 2.73315 3.31124e-19)
(4.51476 0.0967784 0)
(4.53804 0.0335843 0)
(7.54354 1.46724 -3.99718e-20)
(6.5949 2.30883 0)
(6.74359 -4.78294 0)
(6.37477 -0.501072 -6.83499e-21)
(6.89884 -4.80496 -1.21216e-18)
(6.29438 0.998155 -1.18512e-19)
(6.28609 0.962491 1.79759e-19)
(3.74355 -0.670991 -1.02181e-18)
(6.64234 -1.55316 3.39438e-20)
(7.01776 -4.97346 -4.70393e-19)
(6.65957 2.2277 1.62104e-20)
(6.795 -4.74053 6.36893e-19)
(7.10254 0.441521 -1.16368e-20)
(7.04273 0.443535 -3.31363e-21)
(4.17013 1.69228 -1.74051e-18)
(4.52352 0.82565 0)
(4.51797 0.8813 3.33005e-21)
(4.90391 -4.59458 7.24199e-19)
(6.48757 0.391956 0)
(6.47697 2.17059 1.4043e-19)
(6.00722 -4.64111 0)
(6.00138 -4.66376 1.01368e-18)
(4.35705 0.613907 -2.61554e-19)
(6.74905 0.909706 0)
(6.82215 0.923863 0)
(6.60292 2.16674 1.33806e-20)
(6.76247 2.27898 -9.76619e-22)
(6.80805 2.31636 -1.88977e-20)
(4.79367 -5.107 -3.77323e-19)
(8.11635 0.543836 -3.84117e-19)
(8.20184 0.538017 0)
(9.05427 -2.74313 3.08601e-18)
(7.22483 -1.54842 -9.7298e-20)
(7.22161 -1.47412 -4.45767e-20)
(7.14116 -1.58913 2.21984e-19)
(5.91519 0.497523 8.45898e-20)
(5.91531 0.555569 0)
(6.20167 0.358396 0)
(6.18264 0.311916 0)
(7.4326 -0.685132 0)
(7.46966 -0.652806 0)
(8.54991 1.01412 5.93482e-19)
(5.72426 3.38661 1.48835e-19)
(6.8477 2.93084 2.54461e-19)
(6.89654 2.91057 0)
(7.42905 -4.40724 5.19933e-18)
(6.04293 -0.314309 0)
(7.73206 -4.86745 0)
(4.53876 0.487092 8.6365e-19)
(6.74047 -4.76241 -7.06745e-19)
(6.6578 -4.7554 1.48361e-18)
(7.71317 -4.63238 3.48025e-19)
(6.13475 -1.72389 4.04516e-19)
(7.07944 -4.93116 0)
(6.57029 2.19791 3.15125e-20)
(6.52714 2.16057 0)
(8.16934 -1.77771 -5.35498e-19)
(8.12649 -1.10781 -8.87741e-19)
(6.95248 0.970727 5.26196e-21)
(4.42142 -0.14534 0)
(7.22946 -4.83608 7.91778e-19)
(5.88839 2.75199 0)
(5.81818 2.73932 2.24601e-18)
(6.7496 -4.79926 -1.76619e-19)
(4.67933 0.263945 1.57393e-18)
(8.23259 1.02314 0)
(1.70388 -1.75194 0)
(6.52018 1.66457 0)
(6.44161 1.76303 0)
(6.22816 -1.72633 5.83279e-19)
(6.65145 1.08049 2.45625e-20)
(6.58136 1.07468 -9.16749e-21)
(6.61363 2.57895 8.61548e-21)
(6.57688 2.60413 -7.57194e-21)
(6.7865 0.603494 0)
(6.20919 2.42047 -2.41451e-18)
(8.91737 0.612543 0)
(8.80071 0.605584 1.55662e-18)
(6.16818 0.955104 0)
(6.1854 2.93001 0)
(6.22054 3.06645 2.47427e-20)
(6.9258 -1.03818 -8.70855e-21)
(6.6741 3.04802 -1.16411e-19)
(6.65414 3.18846 0)
(6.58592 -1.39505 -2.37716e-19)
(7.91938 -0.886159 2.41681e-19)
(8.03972 -0.780804 6.41488e-19)
(6.05608 2.18043 -1.89337e-19)
(6.10954 2.16549 0)
(7.56853 0.780654 -8.66043e-21)
(8.48601 0.833698 -3.61965e-20)
(8.49192 0.896574 3.36397e-20)
(6.44845 -1.65536 -3.48411e-19)
(6.36324 -1.75976 0)
(2.09625 -1.12472 0)
(5.69088 -4.39223 -1.16277e-18)
(5.57426 -4.35165 1.35045e-18)
(6.96199 -1.79337 -3.89807e-20)
(2.8854 0.516852 0)
(6.90918 2.77367 -7.94879e-21)
(6.87434 2.78549 1.15687e-19)
(5.19677 -4.11297 0)
(4.47543 -3.54119 -3.34637e-18)
(6.55867 -1.63962 -2.653e-20)
(6.58574 -1.56145 1.03888e-19)
(6.48065 -1.62273 3.04876e-19)
(4.16225 0.546585 2.54803e-18)
(4.09328 0.654895 1.44839e-18)
(6.82939 -4.71807 2.1285e-18)
(7.64213 0.47369 2.7076e-19)
(6.81355 0.528034 -4.83822e-21)
(6.67817 -4.74446 0)
(6.65508 -4.73083 0)
(6.72168 -4.74886 0)
(3.0365 -3.06657 1.18831e-18)
(3.0762 -3.11993 3.36176e-18)
(4.92715 -1.19298 0)
(6.55042 -1.18131 -9.51759e-20)
(9.00884 -0.01939 -2.67799e-19)
(9.03924 -0.0546992 0)
(6.07592 -1.03359 -4.35715e-19)
(6.08957 -1.10362 2.82287e-19)
(7.06609 -4.78807 -2.53894e-18)
(7.03703 -4.77146 2.33062e-18)
(7.07938 -4.814 0)
(4.37435 1.0391 9.92925e-19)
(4.36056 1.14647 7.53518e-19)
(2.0247 -1.64563 0)
(6.86214 -4.79001 -1.4977e-18)
(6.8849 3.11959 -5.23333e-20)
(6.01698 2.29739 3.78444e-18)
(5.76571 -4.53326 1.07334e-18)
(5.76822 -4.55915 0)
(2.63622 -3.29379 -8.1579e-18)
(8.31418 -0.590859 9.26836e-19)
(8.0237 0.204207 6.73865e-19)
(8.15109 0.175639 2.02803e-19)
(6.35125 0.925934 -2.67448e-19)
(2.57918 -0.107194 -6.40151e-18)
(6.36976 3.07885 0)
(6.45682 3.07905 0)
(6.66796 -0.704812 -1.14958e-17)
(6.72284 -0.7986 0)
(7.04481 -3.59375 0)
(8.33975 -0.288196 -8.852e-19)
(8.31465 -0.218418 1.31904e-18)
(8.06355 -1.02556 0)
(7.9954 -0.997548 -3.14451e-19)