/*--------------------------------*- C++ -*----------------------------------*\
  =========                 |
  \\      /  F ield         | OpenFOAM: The Open Source CFD Toolbox
   \\    /   O peration     | Website:  https://openfoam.org
    \\  /    A nd           | Version:  6
     \\/     M anipulation  |
\*---------------------------------------------------------------------------*/
FoamFile
{
    version     2.0;
    format      ascii;
    class       volScalarField;
    location    "1100";
    object      nuTilda;
}
// * * * * * * * * * * * * * * * * * * * * * * * * * * * * * * * * * * * * * //

dimensions      [0 2 -1 0 0 0 0];

internalField   nonuniform List<scalar> 
29884
(
0.276538
0.22585
0.122061
0.155995
0.15636
0.129647
0.194139
0.264103
0.213585
0.141145
0.153475
0.141699
0.153031
0.287718
0.280308
0.192043
0.287539
0.266452
0.279779
0.172762
0.278148
0.118572
0.142525
0.140649
0.144303
0.155031
0.194242
0.219052
0.150186
0.253798
0.148664
0.162956
0.1951
0.185294
0.143749
0.147361
0.249594
0.166566
0.179352
0.187689
0.231732
0.184851
0.176318
0.20085
0.183851
0.166719
0.175467
0.176241
0.136639
0.17088
0.167686
0.174264
0.193094
0.275311
0.263483
0.267756
0.187234
0.284234
0.262272
0.266613
0.19821
0.190017
0.135274
0.171054
0.166633
0.172804
0.280467
0.204051
0.302721
0.21142
0.141247
0.149598
0.143864
0.10938
0.318227
0.281093
0.234108
0.231136
0.225842
0.211604
0.180258
0.197652
0.114477
0.142303
0.123918
0.0972263
0.148768
0.156706
0.139294
0.0719938
0.144901
0.156739
0.100507
0.0635011
0.151723
0.000389984
0.139823
0.139895
0.149686
0.0661561
0.139772
0.139237
0.16967
0.177144
0.153318
0.19626
0.0780709
0.0765626
0.153747
0.138847
0.16261
0.000138409
0.135756
0.119526
0.14158
0.14204
0.149584
0.111604
0.147672
0.136858
0.139772
0.141006
0.161289
0.140046
0.137823
0.262224
0.225162
0.203434
0.301339
0.147653
0.14299
0.147234
0.254215
0.23741
0.132216
0.143934
0.165754
0.152003
0.163524
0.163676
0.155426
0.161939
0.173156
0.157148
0.170733
0.173812
0.160305
0.165413
0.178533
0.173849
0.171454
0.094732
0.0831059
0.183346
0.248915
0.215478
0.198807
0.174924
0.229323
0.201097
0.188938
0.156023
0.154199
0.172847
0.000294031
0.000290879
0.204719
0.160426
0.139482
0.1395
0.212174
0.139183
0.139019
0.117826
0.11968
0.151732
0.143918
0.188948
0.142633
0.155892
0.145568
0.128942
0.131135
0.135088
0.118116
0.132374
0.139598
0.13923
0.155415
0.150231
0.15584
0.141445
0.136605
0.143542
0.146343
0.146704
0.141173
0.146817
0.151879
0.149795
0.218054
0.177351
0.153686
0.142318
0.150024
0.136186
0.144438
0.128624
0.140185
0.184928
0.174432
0.215505
0.219213
0.194904
0.257692
0.0438342
0.100969
0.038688
0.112263
0.0390274
0.0370351
0.0636713
0.137476
0.119692
0.0854129
0.0346781
0.0448703
0.0540871
0.00795984
0.0447327
0.0636974
0.0409538
0.0514823
0.0533093
0.0565507
0.0493177
0.0474872
0.138028
0.154954
0.0239376
0.0367667
0.000644737
0.0428989
0.0364359
0.0531484
0.123433
0.0466468
0.0404671
0.105256
0.0784747
0.0592643
0.0783994
0.114573
0.111348
0.0372401
0.0371851
0.0442922
0.0416511
0.0912353
0.0949414
0.067344
0.102833
0.0235645
0.000937999
0.0825889
0.0375519
0.0621433
0.122788
0.122449
0.0371762
0.0873931
0.0888209
0.047214
0.034789
0.0311986
0.0767709
0.0715238
0.0542036
0.0576094
0.0307304
0.159929
0.0511747
0.129477
0.0905547
0.138233
0.116784
0.116544
0.0394336
0.000244354
0.137769
0.0486663
0.0503719
0.050864
0.0273008
0.0503664
0.0511109
0.108538
0.0504294
0.0509144
0.0405425
0.0722575
0.0463787
0.0480277
0.0471726
0.0537232
0.0597635
0.0754683
0.131559
0.111183
0.11211
0.112832
0.110343
0.0420328
0.0181508
0.0198277
0.0543456
0.058273
0.0472306
0.0626466
0.062157
0.069073
0.0637817
0.0585231
0.0586774
0.0566892
0.089672
0.0409686
0.0420745
0.0442125
0.0390466
0.111251
0.112779
0.112921
0.111328
0.0423858
0.0407024
0.13768
0.0950584
0.0477314
0.0459574
0.0627689
0.121175
0.0422444
0.111696
0.135599
0.0465719
0.0505196
0.0488298
0.0482069
0.0722325
0.0714274
0.0653448
0.0873594
0.0883018
0.085966
0.062583
0.0570644
0.0541735
0.0553169
0.0576848
0.0634441
0.0737998
0.132616
0.121266
0.109988
0.11017
0.120576
0.132974
0.000469806
0.0404261
0.0629251
0.0607504
0.136921
0.144236
0.129389
0.100172
0.0956298
0.0643996
0.0516144
0.0542689
0.0500211
0.117137
0.126813
0.122637
0.131496
0.0459901
0.0522532
0.0488297
0.049006
0.0890775
0.085296
0.0836009
0.0912092
0.0558645
0.0577686
0.0588492
0.0447533
0.0436451
0.0511151
0.0431532
0.0832693
0.0709745
0.0923533
0.0848253
0.0881836
0.0897666
0.0234354
0.137238
0.138456
0.139442
0.138696
0.0405728
0.0424812
0.0476949
0.0469527
0.0449587
0.0595772
0.0675141
0.0338597
0.0386686
0.0395091
0.0186599
0.0533464
0.0567607
0.0504633
0.0718109
0.0794693
0.0738858
0.0763855
0.0501254
0.0553709
0.0531736
0.0522346
0.129969
0.0643455
0.061891
0.0665144
0.0603407
0.0595381
0.0617126
0.0440201
0.0461246
0.0461016
0.043953
0.151283
0.149949
0.135414
0.0633046
0.0610498
0.06315
0.0603872
0.122011
0.13793
0.0755435
0.0851473
0.1305
0.145182
0.139318
0.130478
0.160477
0.00583327
0.124241
0.125656
0.075835
0.0461559
0.0484097
0.0504387
0.0449002
0.0817083
0.090606
0.0865864
0.0861703
0.137936
0.137752
0.138008
0.139659
0.139598
0.165654
0.151086
0.157476
0.158844
0.14055
0.144524
0.142454
0.142384
0.0357096
0.0333557
0.0316881
0.0366168
0.104176
0.103032
0.106654
0.0447817
0.0419823
0.0420195
0.0444781
0.136924
0.134676
0.136177
0.000651472
0.00435157
0.138654
0.0106602
0.119797
0.139542
0.138712
0.000895644
0.00120685
0.139024
0.139046
0.139215
0.138839
0.0737846
0.138486
0.12894
0.000272673
0.000321473
0.137303
0.0393546
0.22978
0.139299
0.255916
0.126256
0.140704
0.138869
0.000655718
0.141395
0.134131
0.140307
0.137771
0.0633678
0.128967
0.13778
0.12306
0.134662
0.144444
0.129568
0.124401
0.170345
0.210739
0.240624
0.106701
0.106949
0.139024
0.139008
0.139739
0.13957
0.130088
0.00573
0.128434
0.121778
0.105095
0.139093
0.120435
0.139092
0.139067
0.139036
0.00270631
0.138395
0.13861
0.0624083
0.066131
0.0663915
0.122425
0.24377
0.209449
0.128395
0.124416
0.12754
0.101922
0.107162
0.127555
0.128296
0.184436
0.204677
0.128468
0.252042
0.138228
0.138332
0.253095
0.206997
0.000872418
0.126443
0.261392
0.0961653
0.141823
0.142994
0.00036845
0.0761796
0.0698651
0.137475
0.139553
0.139342
0.117768
0.121041
0.131237
0.129509
0.0397895
0.0397057
0.143985
0.141406
0.144936
0.139507
0.13925
0.00100404
0.138898
0.137315
0.136075
0.137795
0.138048
0.138268
0.183991
0.133301
0.136211
0.130109
0.132702
0.160389
0.166206
0.199386
0.177098
0.120979
0.137546
0.133344
0.141342
0.143444
0.134953
0.145779
0.159899
0.150062
0.146702
0.123289
0.119423
0.0565948
0.0520242
0.0481238
0.0386815
0.139012
0.140631
0.142104
0.253576
0.194421
0.0871147
0.093426
0.20082
0.172032
0.19687
0.145534
0.159298
0.153727
0.164473
0.234696
0.189111
0.181526
0.062359
0.0613333
0.138762
0.138566
0.139553
0.138284
0.157015
0.111352
0.114685
0.118344
0.137574
0.13818
0.13755
0.137637
0.137229
0.139663
0.162027
0.153449
0.132866
0.139565
0.142485
0.145111
0.135562
0.136166
0.212274
0.267821
0.237846
0.109191
0.113522
0.115993
0.00427753
0.00467506
0.136112
0.133495
0.0652241
0.0610215
0.165917
0.168774
0.162055
0.0319244
0.0302282
0.0788977
0.0783692
0.0377348
0.0384602
0.0432339
0.0780567
0.0730719
0.0760714
0.0291683
0.0849545
0.00608575
0.0419361
0.0178442
0.0608635
0.0346358
0.00753141
0.0724014
0.0369819
0.00782377
0.00772016
0.00832505
0.0895417
0.0898833
0.0721383
0.062195
0.0625377
0.0776579
0.0508741
0.0499793
0.0214786
0.0756802
0.0748262
0.0536982
0.0553229
0.0553048
0.0616036
0.0721501
0.0722429
0.0339683
0.0754033
0.0752588
0.0141946
0.00281629
0.034858
0.0366656
0.0327705
0.0973754
0.0946931
0.0255955
0.0495507
0.0265537
0.081746
0.0769715
0.0830793
0.010326
0.0705723
0.0707103
0.080513
0.0539237
0.0588747
0.0614046
0.0587794
0.0522875
0.0943765
0.0660767
0.0322532
0.0848526
0.0155755
0.0186987
0.106387
0.0976566
0.0366425
0.0674204
0.0264944
0.0453708
0.0200948
0.0605521
0.0626248
0.0925535
0.00154364
0.0454146
0.0711797
0.071885
0.0470314
0.0459837
0.0754934
0.0473836
0.0477837
0.0459809
0.00152783
0.067182
0.0359485
0.0366825
0.0219876
0.0670382
0.0668913
0.0404728
0.0421483
0.0309184
0.0314867
0.0637789
0.0710958
0.0417344
0.0764183
0.0735498
0.104518
0.0438439
0.00837849
0.0642734
0.0642103
0.0354215
0.0538323
0.0573056
0.0130791
0.00164496
0.0473946
0.034138
0.086633
0.0865011
0.0411251
0.0384629
0.0518045
0.0524294
0.0422354
0.0089587
0.0466244
0.0380941
0.0381107
0.0291895
0.0571626
0.0359418
0.00137175
0.0251111
0.088801
0.00647932
0.00649653
0.0959275
0.0959712
0.118714
0.0616623
0.0725874
0.00931805
0.084924
0.0762035
0.0714039
0.067138
0.0495279
0.061931
0.0575595
0.0545702
0.0795258
0.00672433
0.013281
0.0518357
0.0786259
0.0704365
0.0468333
0.0495696
0.0555543
0.0779911
0.0602177
0.0599415
0.0497555
0.0714048
0.0664989
0.0648259
0.0766528
0.0727267
0.0437784
0.0361928
0.0347788
0.0341237
0.0529188
0.0690084
0.0340312
0.0509926
0.0488876
0.0670197
0.0828724
0.0470818
0.0346618
0.0680388
0.0693948
0.0452665
0.136162
0.10755
0.060788
0.0620649
0.055237
0.0851222
0.0563249
0.0728581
0.0661629
0.0761446
0.0760453
0.0366756
0.0698981
0.0263724
0.0822753
0.0619133
0.061458
0.062399
0.0433396
0.0577658
0.0571714
0.0549709
0.13529
0.087396
0.0230461
0.0223024
0.0533689
0.0695828
0.0685224
0.0836967
0.0786859
0.0770013
0.044264
0.0405167
0.0381144
0.0102369
0.0551679
0.0551926
0.0570793
0.0761304
0.076161
0.0742054
0.0743185
0.0517128
0.050969
0.0290973
0.0637077
0.0648099
0.063906
0.0627899
0.0768406
0.0135879
0.0590963
0.0576626
0.0526527
0.0190539
0.0811701
0.0744825
0.0850637
0.0859335
0.0333065
0.0365378
0.0665311
0.060122
0.0278069
0.0868545
0.0871604
0.0555273
0.0645569
0.0375109
0.00505379
0.125928
0.124236
0.079636
0.0722629
0.0733441
0.0820706
0.0830911
0.067393
0.103531
0.0198174
0.0233339
0.0768077
0.0794797
0.0733413
0.0620443
0.0660005
0.0620387
0.070751
0.0411941
0.0391541
0.0894432
0.089867
0.0532025
0.0309428
0.0308275
0.0748742
0.0767983
0.0160964
0.0137309
0.0092665
0.0623684
0.0444714
0.0668093
0.0676847
0.00511613
0.0041004
0.0722875
0.0713338
0.0737821
0.0471514
0.0444773
0.0643189
0.0506805
0.0666424
0.054421
0.0537364
0.0570347
0.0193324
0.0205377
0.113294
0.0712924
0.0185992
0.0177563
0.0803281
0.0802517
0.0715075
0.0712978
0.0719753
0.0525086
0.0518513
0.00417922
0.0645141
0.0583926
0.105841
0.0150289
0.0147907
0.0170297
0.0338972
0.0417926
0.0390667
0.0751494
0.0350473
0.0942519
0.0955686
0.115692
0.109957
0.058218
0.0338731
0.0345966
0.0380854
0.0394236
0.100621
0.100059
0.0988336
0.0585348
0.0633331
0.0476675
0.0148261
0.0228685
0.0688849
0.0325708
0.0336893
0.0528331
0.0542125
0.0908989
0.0509343
0.0518599
0.0591005
0.0554772
0.0773672
0.0786782
0.0764763
0.0785181
0.0806073
0.0526905
0.0764239
0.00686779
0.028384
0.0334584
0.0189259
0.0195147
0.0585938
0.080668
0.0583041
0.0615681
0.0611493
0.0615945
0.0597566
0.0606798
0.0584042
0.0482975
0.0469898
0.0334043
0.0424262
0.0340617
0.0656849
0.0661807
0.0649767
0.00505811
0.0648888
0.106107
0.103511
0.0650139
0.0641706
0.0652072
0.0720162
0.0748751
0.0396449
0.0417253
0.0410346
0.0402624
0.0584163
0.0541344
0.0441551
0.0950075
0.0945051
0.094322
0.0703387
0.0885333
0.0299056
0.0323096
0.0280825
0.0384825
0.0357919
0.0330612
0.105438
0.0545673
0.0555979
0.0745233
0.106934
0.104038
0.0830705
0.0965977
0.0512607
0.0496658
0.0510767
0.0432478
0.0419285
0.0440862
0.085283
0.045197
0.0721286
0.0721544
0.1045
0.0431913
0.0778951
0.0776973
0.0778491
0.0376578
0.000963834
0.0690197
0.0503767
0.0488282
0.0121032
0.000409944
0.102112
0.0519773
0.107867
0.0488418
0.0498586
0.0782021
0.0603169
0.0795596
0.112504
0.0155564
0.0763644
0.0760185
0.0787253
0.0405379
0.101145
0.0998227
0.102079
0.0811736
0.0833469
0.000672559
0.0552078
0.0535877
0.100046
0.102779
0.098022
0.000737359
0.000801108
0.0921632
0.0290358
0.0246947
0.0487657
0.0510317
0.0504293
0.0492761
0.0878526
0.036232
0.0354456
0.0674821
0.000610902
0.0712474
0.0716067
0.0805008
0.0792703
0.0867996
0.0227271
0.0640139
0.0625732
0.0983334
0.0986181
0.02226
0.0861316
0.0868057
0.086791
0.0628956
0.0625902
0.0761698
0.0872439
0.0840468
0.054456
0.00200115
0.043378
0.0605108
0.00057172
0.0352543
0.0917276
0.0574133
0.00585715
0.054864
0.0530735
0.0683304
0.0703217
0.0876376
0.0836414
0.0590581
0.0599017
0.0563299
0.0777196
0.0788958
0.0772653
0.0775495
0.07704
0.000950704
0.0238885
0.000510057
0.0596256
0.00547908
0.135967
0.136156
0.136282
0.135922
0.0745047
0.059188
0.0588847
0.137766
0.138098
0.0613324
0.078797
0.077216
0.0770388
0.0457847
0.0841909
0.0673258
0.0691133
0.0935431
0.0897165
0.0580104
0.054467
0.0554076
0.000539649
0.0421432
0.0439457
0.0448526
0.0414886
0.0766444
0.0767936
0.0325966
0.0936487
0.095168
0.077338
0.0656246
0.0661473
0.0629782
0.0443643
0.0426023
0.0457386
0.0408387
0.0397271
0.127958
0.0690638
0.0388214
0.0382617
0.0753368
0.0763209
0.0926793
0.0926968
0.0934298
0.091984
0.0733371
0.0731524
0.0714198
0.0683941
0.0687486
0.0679795
0.0984439
0.0962187
0.000323333
0.0468175
0.0479899
0.0222722
0.0187122
0.00044525
0.000621369
0.000598374
0.0397904
0.0391901
0.0107045
0.0111713
0.0979895
0.0825127
0.0896369
0.0705511
0.0391537
0.0213887
0.0204077
0.0237468
0.0674122
0.0664679
0.0678499
0.0664944
0.000449929
0.000766388
0.000751536
0.0011142
0.00934361
0.0131331
0.0418311
0.0407829
0.000851221
0.0438536
0.0258076
0.092207
0.0919777
0.0945149
0.0911943
0.0918759
0.0909117
0.105248
0.106806
0.104128
0.102411
0.0735521
0.0606356
0.0635471
0.0599104
0.0541579
0.0550304
0.0522595
0.116302
0.105188
0.11019
0.094504
0.0954082
0.0954731
0.0762329
0.0708028
0.0708829
0.0700018
0.0680558
0.0722904
0.0737744
0.0695716
0.0688557
0.0696761
0.000418028
0.000693982
0.0895098
0.0903891
0.0899228
0.0899435
0.0354131
0.0662914
0.0666606
0.0655009
0.0918062
0.0931051
0.0935273
0.0912565
0.0570265
0.0574649
0.0560289
0.164755
0.0388801
0.067837
0.0681661
0.0672805
0.0688318
0.0783793
0.084364
0.0651402
0.0664894
0.0792131
0.076368
0.0252731
0.12835
0.0342069
0.0327983
0.105315
0.000370086
0.0599857
0.0714281
0.0760103
0.0766565
0.0746567
0.0836733
0.084657
0.0080365
0.0448934
0.044438
0.0462072
0.0461572
0.0483966
0.042639
0.0522248
0.0558282
0.0548366
0.00447013
0.00440273
0.0506663
0.0512809
0.0629317
0.0626313
0.0637853
0.000346152
0.0570729
0.0005958
0.0745001
0.0670441
0.0651395
0.0667225
0.0648693
0.00175798
0.0489128
0.050271
0.049444
0.0835705
0.0681781
0.075033
0.0744445
0.0652265
0.0646892
0.0636495
0.0662253
0.0427536
0.0396976
0.0417159
0.0403945
0.0615527
0.0588456
0.0615549
0.0641941
0.00102559
0.00440477
0.0901322
0.0905048
0.0897452
0.0908118
0.0558616
0.0569063
0.057186
0.0354032
0.06513
0.0650787
0.0674343
0.066039
0.0647151
0.0660104
0.0950068
0.096958
0.0956443
0.0968712
0.0981626
0.0486711
0.0468765
0.0469047
0.0485493
0.103222
0.105004
0.104335
0.103751
0.045193
0.0432515
0.0476946
0.0529157
0.0518362
0.0791679
0.0799057
0.0776943
0.0638817
0.0612251
0.0704991
0.0720376
0.120603
0.119014
0.119309
0.120381
0.081845
0.0783944
0.0794879
0.0621122
0.0633945
0.0452808
0.041805
0.0411939
0.023456
0.0652018
0.0630194
0.0598976
0.0548723
0.0551224
0.0411672
0.0863723
0.088312
0.0881127
0.0863974
0.00106044
0.0552373
0.056709
0.0554658
0.0564262
0.137016
0.137182
0.0579986
0.0560427
0.0566999
0.0573245
0.0517562
0.0519963
0.0504825
0.0361025
0.0396708
0.0352443
0.0499245
0.0518042
0.0501509
0.0516289
0.0799122
0.0736998
0.0663192
0.0434338
0.0427451
0.0436914
0.0423925
0.00731494
0.0815891
0.00712067
0.00702146
0.0927224
0.0919946
0.0920668
0.0926077
0.0637562
0.0529584
0.052526
0.0849165
0.0840668
0.0856057
0.101223
0.0859346
0.070432
0.0712592
0.0696646
0.0576207
0.0525869
0.0546553
0.0553246
0.0375516
0.0770664
0.0764014
0.0138496
0.0173948
0.0547183
0.0533703
0.0538753
0.00116881
0.0517621
0.0798075
0.0744033
0.0738744
0.0758125
0.0733449
0.0382102
0.0366595
0.0388586
0.110959
0.108327
0.109724
0.0515057
0.0515786
0.128487
0.129535
0.0525268
0.0540038
0.0553677
0.0990908
0.0953722
0.0892216
0.0159516
0.019916
0.0180682
0.0139625
0.0135974
0.0118322
0.0097908
0.015189
0.0529845
0.0626567
0.0640091
0.0563978
0.0557722
0.0576196
0.077329
0.0757448
0.0733697
0.0730611
0.0923219
0.0928361
0.0449694
0.0469403
0.104326
0.118883
0.0966379
0.0974783
0.0836917
0.0860435
0.0822451
0.085878
0.0877648
0.086801
0.0230645
0.0276241
0.0652716
0.0630617
0.064089
0.0642073
0.0739998
0.0503275
0.0516294
0.0519997
0.0447089
0.0440783
0.0460008
0.0426802
0.000805826
0.0533278
0.0541693
0.0549968
0.073983
0.0697819
0.0392898
0.0381786
0.0741531
0.0729007
0.0752345
0.0761581
0.0823618
0.072995
0.0727603
0.0732195
0.0726748
0.035645
0.0925113
0.0914895
0.0448293
0.0444011
0.045652
0.0435933
0.0613175
0.0619624
0.060681
0.00692477
0.00766242
0.00580942
0.0829684
0.0845389
0.0804979
0.040806
0.0395759
0.0534877
0.0510868
0.0510592
0.0517178
0.0520216
0.0703527
0.0622242
0.0642541
0.0644045
0.0798531
0.0415478
0.0399329
0.0405294
0.0409833
0.111174
0.109286
0.109426
0.110942
0.0720027
0.0622538
0.064002
0.0620109
0.0646862
0.0798392
0.0926521
0.0922965
0.0933402
0.0917051
0.0910271
0.0919924
0.0924527
0.0907027
0.0345557
0.0546055
0.0547002
0.073924
0.0743062
0.000574025
0.00713794
0.0709147
0.0704063
0.0632793
0.0643002
0.0588817
0.058223
0.0596286
0.0706912
0.0695731
0.00665518
0.00800231
0.0579318
0.0561872
0.0572722
0.0569367
0.0743749
0.0887744
0.0878225
0.0884037
0.00789341
0.0554891
0.0546482
0.0559877
0.05409
0.0401696
0.0413787
0.0402685
0.0411655
0.0847027
0.0843551
0.0837056
0.0768108
0.0309259
0.0297684
0.0290746
0.0314524
0.028245
0.0293914
0.0740479
0.0866031
0.086122
0.0867456
0.0456993
0.0477137
0.0470237
0.046346
0.0770457
0.0773988
0.0573918
0.0585581
0.0587409
0.0571382
0.0399952
0.0497637
0.0499479
0.0406528
0.0242991
0.0217311
0.0448901
0.046587
0.0730792
0.0724841
0.0733617
0.0987219
0.0980852
0.0977169
0.0324631
0.031195
0.0319104
0.0605134
0.0613576
0.0617624
0.0600908
0.0347454
0.0436015
0.0431565
0.0444731
0.0422548
0.0041246
0.0368416
0.0495668
0.0545401
0.0586733
0.0596737
0.0598799
0.0583934
0.128139
0.0898372
0.0891053
0.0891385
0.0897399
0.0602885
0.0616084
0.0598453
0.0394654
0.09171
0.0910845
0.091718
0.0566704
0.0587748
0.0422605
0.0470739
0.0449006
0.068476
0.0673511
0.0689152
0.0795252
0.0366984
0.0749669
0.0506239
0.0465198
0.0886955
0.0880141
0.0913447
0.0125581
0.0102154
0.0141433
0.0686621
0.0684864
0.0698295
0.0675105
0.0369741
0.0357475
0.0877267
0.0853486
0.086008
0.0871827
0.0913609
0.0908256
0.0437435
0.0456948
0.0909537
0.0892459
0.0910084
0.08896
0.123916
0.124332
0.0462914
0.0895992
0.0894099
0.089319
0.0735025
0.0744667
0.0732409
0.0161386
0.0475988
0.0467817
0.0498788
0.0448459
0.0499386
0.0529019
0.0516648
0.0510665
0.0468118
0.0449496
0.0459336
0.116504
0.100321
0.115406
0.105069
0.0239023
0.0804422
0.0795093
0.114036
0.115651
0.0456349
0.0447306
0.0444532
0.0458015
0.0909508
0.0902542
0.120464
0.118653
0.0430261
0.0654608
0.067195
0.0671237
0.0340836
0.0302973
0.0332056
0.0303553
0.0284769
0.0312188
0.0656683
0.066766
0.0656992
0.0427406
0.0364066
0.0401642
0.0394496
0.0616974
0.0607037
0.108791
0.0989723
0.0571009
0.0604364
0.0594993
0.0574645
0.0692724
0.0244656
0.0262318
0.0281941
0.0231498
0.107743
0.105988
0.108674
0.0335413
0.035162
0.0346326
0.0351635
0.0341189
0.0356203
0.0745555
0.0775848
0.0328278
0.0343814
0.0956047
0.0650392
0.0902279
0.0890383
0.0828598
0.00366474
0.0794679
0.0777347
0.0783679
0.0463014
0.0207872
0.0423595
0.0905412
0.0813715
0.0786126
0.0972095
0.0790827
0.0799292
0.0790298
0.0531559
0.0546783
0.000282936
0.054348
0.0409692
0.114941
0.113006
0.113611
0.114373
0.0628444
0.0643927
0.0642553
0.0629312
0.102784
0.103767
0.102089
0.104338
0.0370402
0.037666
0.0381632
0.0364761
0.0711858
0.070876
0.07188
0.0701376
0.0433668
0.0441588
0.0418281
0.0297106
0.0351875
0.0440493
0.0700687
0.0682877
0.123507
0.122333
0.0554127
0.0266524
0.0943787
0.0949099
0.0953218
0.0364137
0.0674939
0.0662873
0.0649249
0.0686525
0.0839834
0.0683592
0.0668894
0.0670581
0.0681673
0.0479766
0.0445885
0.0468151
0.0454954
0.0884024
0.0879996
0.0886615
0.0877069
0.0762606
0.0746759
0.0751138
0.0758069
0.0771391
0.0764587
0.0776712
0.0759103
0.0398733
0.0371603
0.0393688
0.0375493
0.0506853
0.0487549
0.0655941
0.0635176
0.0631081
0.0652921
0.114429
0.117204
0.115651
0.0747345
0.068999
0.0671913
0.0677717
0.0616996
0.0578559
0.0609251
0.0572029
0.0584187
0.0550453
0.0565386
0.0249023
0.0756286
0.0749069
0.00026984
0.0519746
0.0537539
0.052103
0.0535316
0.0729239
0.0605228
0.0695746
0.0551255
0.00396158
0.00411979
0.00403142
0.0651262
0.066153
0.127905
0.0604218
0.0595203
0.0548449
0.0538317
0.0547822
0.0642982
0.0649668
0.064576
0.0652897
0.0726234
0.0734745
0.0728332
0.0804361
0.083094
0.0416147
0.0434697
0.0423512
0.000240483
0.0636706
0.064292
0.109902
0.108389
0.0681083
0.069408
0.066617
0.0707268
0.0306422
0.0336941
0.0345379
0.0368777
0.118714
0.117558
0.0505182
0.0499711
0.0511995
0.0493707
0.0611492
0.0621009
0.0598417
0.110611
0.108051
0.109192
0.109399
0.085655
0.0848176
0.0859782
0.0843506
0.0829219
0.0842892
0.084164
0.0829476
0.0758104
0.0761972
0.0749118
0.0324363
0.0331232
0.0333537
0.0320898
0.048115
0.0505274
0.111327
0.025384
0.029569
0.028498
0.00112954
0.0451919
0.0438592
0.0444661
0.0748013
0.0730987
0.0810709
0.0819468
0.0807308
0.0821914
0.0330507
0.0292902
0.0865994
0.0863323
0.0858061
0.0870956
0.116582
0.117557
0.118016
0.116054
0.04589
0.0469212
0.0453334
0.0476314
0.074942
0.0751438
0.0749038
0.0452004
0.0462007
0.0467666
0.0445454
0.0754248
0.0759091
0.0751837
0.053773
0.0883391
0.0875768
0.088454
0.0875301
0.023704
0.0339672
0.0139875
0.0112145
0.0763862
0.00457211
0.0032661
0.00299787
0.0290198
0.042329
0.0114927
0.00063897
0.000859927
0.000607289
0.000302023
0.0296584
0.000382658
0.000445428
0.0103241
0.0101833
0.0548623
0.0112302
0.0102807
0.138805
0.0168322
0.128845
0.0142782
0.0302829
0.0302765
0.00853791
0.000534418
0.081427
0.0138928
0.00593884
0.00628155
0.00981563
0.118236
0.137028
0.0158728
0.0169334
0.0302382
0.00282177
0.0891385
0.137228
0.082779
0.122574
0.119129
0.0564664
0.00334094
0.0150066
0.000398148
0.000589611
0.000564706
0.0249319
0.0234123
0.00678133
0.025224
0.00271996
0.00320758
0.0230349
0.000624583
0.0704558
0.033945
0.138654
0.138534
0.00046687
0.0227135
0.0215733
0.0128061
0.007952
0.0240782
0.0237686
0.0246304
0.0660343
0.0686222
0.00673229
0.0709887
0.137491
0.137146
0.0214733
0.000573962
0.00516352
0.00413077
0.0661218
0.0120358
0.0187366
0.000496295
0.0204149
0.02366
0.130118
0.00307023
0.0153295
0.013275
0.138381
0.114185
0.00428647
0.0802116
0.0377903
0.0077128
0.135137
0.0274351
0.00232473
0.0351481
0.0340535
0.00889537
0.0202997
0.0211225
0.022932
0.0185818
0.0263427
0.0256216
0.0265273
0.0364541
0.00175158
0.0197214
0.0367176
0.136122
0.0173491
0.118898
0.0168567
0.13977
0.000606067
0.0220606
0.0209959
0.0220056
0.0855323
0.0276642
0.0285408
0.00568122
0.00037531
0.00143745
0.00264401
0.0762988
0.0733265
0.0171808
0.028464
0.00531182
0.0066095
0.00253396
0.0293465
0.031006
0.159259
0.0021659
0.137194
0.137618
0.0537583
0.0154196
0.0350435
0.0803551
0.0792715
0.0344719
0.0330143
0.0474958
0.0293218
0.00824968
0.00416108
0.0407152
0.0156867
0.0218377
0.0433576
0.0441589
0.0411119
0.00517668
0.00817707
0.068798
0.0677569
0.0412459
0.0378569
0.0282415
0.0351229
0.0362493
0.072498
0.00387049
0.00395866
0.0468803
0.13854
0.00391847
0.00521155
0.00462078
0.00314173
0.00422714
0.0042994
0.00570351
0.0178967
0.00384419
0.0044605
0.006003
0.0042659
0.00577384
0.0304184
0.0297336
0.0415688
0.00460058
0.00646669
0.035533
0.000555485
0.000865792
0.0307026
0.00298554
0.0230718
0.0205662
0.0242083
0.0231626
0.00763892
0.00858198
0.00584182
0.007679
0.123285
0.00522945
0.0784619
0.077554
0.0773367
0.0426073
0.0333174
0.00627835
0.0203564
0.0058313
0.131199
0.0292802
0.00253236
0.0118341
0.011093
0.0135422
0.0100045
0.00682624
0.140005
0.0297007
0.0322789
0.0042335
0.00333937
0.0640372
0.068108
0.163213
0.157773
0.00741058
0.0185056
0.13877
0.0262419
0.0260639
0.00056542
0.00781793
0.0138049
0.117582
0.120122
0.00909414
0.0523847
0.00951734
0.00826133
0.00939728
0.00436955
0.0626884
0.0638311
0.0654341
0.0012039
0.0350708
0.141473
0.13948
0.114918
0.0779869
0.0186134
0.0399539
0.0358744
0.0663744
0.139191
0.139067
0.0252221
0.137471
0.00173192
0.00217287
0.00909967
0.0251333
0.0112648
0.040833
0.0409086
0.0394117
0.0394861
0.00445926
0.00269325
0.00189391
0.166671
0.0606783
0.0116371
0.1209
0.129625
0.130168
0.0385963
0.0720634
0.0700269
0.166317
0.148253
0.00144382
0.00808279
0.0655216
0.063928
0.00660247
0.00604223
0.0319651
0.0312645
0.0816448
0.0797393
0.0732402
0.0763867
0.0417123
0.0184279
0.0168855
0.0816229
0.036462
0.0361505
0.0405923
0.0286306
0.0354637
0.0168951
0.00473511
0.0284173
0.00482196
0.148424
0.0106222
0.0118627
0.023471
0.0518757
0.0266402
0.023286
0.101024
0.094063
0.109392
0.0236124
0.0769443
0.0196723
0.138157
0.0360084
0.00175915
0.0372298
0.00367744
0.00379283
0.137744
0.0303713
0.0302478
0.0172496
0.137736
0.103357
0.110075
0.0247175
0.0410255
0.041956
0.0785182
0.0793573
0.0388139
0.0331605
0.0360273
0.0339172
0.0355733
0.088319
0.0777436
0.136067
0.136596
0.0825635
0.0827091
0.0672088
0.00716608
0.00614312
0.0704981
0.0165133
0.136805
0.0638846
0.0659532
0.0678259
0.0582149
0.0555883
0.0575724
0.121891
0.147073
0.139308
0.0689346
0.0676215
0.0682812
0.122414
0.00761073
0.0362459
0.0291838
0.0153429
0.0150175
0.0986836
0.0254219
0.0463517
0.0512324
0.0269465
0.170526
0.013367
0.0386334
0.0147663
0.0245218
0.0104177
0.0158253
0.0162096
0.121657
0.124103
0.123041
0.0286499
0.0292702
0.0116421
0.0679963
0.0160077
0.0190006
0.0328358
0.0294292
0.0289717
0.0513226
0.0719858
0.0433818
0.0461798
0.132973
0.126963
0.00177838
0.00234465
0.138663
0.0173848
0.00811941
0.0124474
0.118972
0.117466
0.138548
0.10977
0.138661
0.132925
0.132162
0.0201459
0.0260043
0.126046
0.126938
0.124826
0.125444
0.059082
0.0560426
0.0961431
0.0983393
0.125696
0.123469
0.00319808
0.118803
0.117698
0.0459572
0.138902
0.138732
0.138677
0.101551
0.098198
0.137668
0.13969
0.13833
0.067946
0.0279339
0.0298107
0.0303444
0.0632936
0.0628009
0.0636873
0.16195
0.162624
0.0771166
0.0355375
0.0374761
0.165931
0.16369
0.0502923
0.050775
0.0333965
0.0313516
0.000419897
0.00259433
0.0717941
0.0103652
0.0127294
0.0137358
0.0763232
0.000829645
0.00124542
0.05691
0.0580889
0.0182312
0.00799655
0.00789277
0.00917767
0.00557732
0.0281795
0.0287274
0.0315656
0.113176
0.114898
0.0192939
0.0141103
0.0151263
0.0061886
0.00702691
0.129468
0.127656
0.142868
0.151365
0.159578
0.109388
0.0580164
0.0570215
0.0481539
0.0541984
0.0521892
0.0695456
0.077895
0.0432878
0.0420664
0.0204085
0.0217292
0.13867
0.138597
0.242661
0.227096
0.0327587
0.00801951
0.033987
0.0106017
0.0120529
0.0105414
0.0104478
0.00714018
0.128988
0.0247028
0.0304791
0.044206
0.040632
0.0604288
0.0617065
0.04168
0.0402846
0.0376894
0.0432679
0.0170701
0.0110401
0.0372407
0.00931912
0.033153
0.136626
0.0128876
0.0137059
0.152577
0.156733
0.0302422
0.0288272
0.0255233
0.00944277
0.038584
0.0397887
0.052454
0.0404333
0.0397908
0.058794
0.0240792
0.000574282
0.0416986
0.0423724
0.0165836
0.0130165
0.0155097
0.0824737
0.0832552
0.0823474
0.0488486
0.0803935
0.0797083
0.0696059
0.0680067
0.133634
0.0975534
0.0982822
0.0355838
0.0378952
0.0376789
0.0530471
0.0755092
0.0112166
0.13992
0.139671
0.139877
0.135126
0.0536493
0.020743
0.0223116
0.0289781
0.0257178
0.0579858
0.0343815
0.0366416
0.0515162
0.0558736
0.0378874
0.0379777
0.0985458
0.104193
0.108647
0.0291384
0.0289579
0.0428555
0.0431604
0.0316337
0.0731877
0.071183
0.0702545
0.12824
0.0376747
0.00532398
0.00598317
0.135287
0.0237556
0.0655401
0.00343918
0.025413
0.0237249
0.0258612
0.0196474
0.0259442
0.0623764
0.0126928
0.0103989
0.00927974
0.0951346
0.032671
0.000921593
0.00148389
0.0651492
0.13826
0.0811283
0.0815247
0.0401464
0.111707
0.10669
0.0195193
0.0202839
0.0447566
0.0423763
0.0440733
0.0712842
0.0208854
0.0219104
0.140028
0.140518
0.0355802
0.0219178
0.0200765
0.0362043
0.138761
0.091832
0.0899304
0.0393674
0.0719217
0.0325094
0.00295264
0.00239723
0.00505213
0.0451967
0.0891257
0.003444
0.183184
0.00243433
0.00454101
0.00690137
0.00428624
0.00360803
0.00378224
0.00268376
0.00362926
0.128968
0.0363552
0.0378652
0.0272761
0.0398272
0.0786391
0.0750395
0.139343
0.139477
0.139265
0.0714556
0.0950976
0.093646
0.0680133
0.0659636
0.0635966
0.0337756
0.0340077
0.0668184
0.0649502
0.0162468
0.0181871
0.0205748
0.14561
0.150663
0.138163
0.137965
0.0483516
0.119942
0.116156
0.0307816
0.0329873
0.137563
0.137242
0.00399926
0.0688537
0.0672443
0.139088
0.138804
0.0090722
0.133899
0.0657846
0.07241
0.0552804
0.0286658
0.0204344
0.00390663
0.0312985
0.0936755
0.070222
0.0708136
0.019996
0.0243293
0.0259219
0.00251361
0.0687514
0.0694027
0.06067
0.124607
0.125118
0.126089
0.0383997
0.0438148
0.0461602
0.0468077
0.0458433
0.0508181
0.10568
0.107346
0.0447795
0.0404815
0.0412434
0.0400776
0.0427352
0.0437315
0.00135818
0.112631
0.113722
0.115746
0.0179618
0.0162055
0.0659676
0.0657037
0.136676
0.136664
0.03053
0.0336535
0.12654
0.127386
0.0441041
0.0443803
0.0430596
0.23142
0.187654
0.0800451
0.0783161
0.0140024
0.0157385
0.121185
0.0618996
0.064026
0.131369
0.130575
0.129758
0.0297463
0.0327881
0.138456
0.138169
0.0478575
0.0467919
0.0481581
0.0416109
0.0384271
0.107968
0.107586
0.10649
0.0143516
0.0187202
0.0695264
0.0702122
0.0148633
0.138047
0.138226
0.0523743
0.126841
0.122969
0.0185436
0.0623123
0.0655762
0.0350348
0.0355008
0.0364689
0.138235
0.11829
0.103279
0.109737
0.115114
0.021721
0.0737258
0.138202
0.0202533
0.0020079
0.00394162
0.0621632
0.0618439
0.0149266
0.0704819
0.0489704
0.0452429
0.120493
0.139645
0.0428238
0.0448305
0.0255912
0.0632544
0.0674114
0.0134598
0.0481213
0.0467817
0.0647595
0.00494622
0.00499379
0.12161
0.0488259
0.0490859
0.0473443
0.035284
0.0406368
0.0365641
0.0492583
0.0504359
0.0080283
0.0512749
0.0506659
0.0497775
0.047174
0.0468017
0.00814564
0.00719359
0.0907412
0.0897625
0.0887269
0.0495116
0.0451408
0.0527141
0.046595
0.0484404
0.00348157
0.0338918
0.0967572