/*--------------------------------*- C++ -*----------------------------------*\
  =========                 |
  \\      /  F ield         | OpenFOAM: The Open Source CFD Toolbox
   \\    /   O peration     | Website:  https://openfoam.org
    \\  /    A nd           | Version:  6
     \\/     M anipulation  |
\*---------------------------------------------------------------------------*/
FoamFile
{
    version     2.0;
    format      ascii;
    class       volScalarField;
    location    "1100";
    object      p;
}
// * * * * * * * * * * * * * * * * * * * * * * * * * * * * * * * * * * * * * //

dimensions      [0 2 -2 0 0 0 0];

internalField   nonuniform List<scalar> 
29884
(
2.78932
0.0855576
0.609903
-2.57126
-0.0907065
2.53584
0.110032
-4.41845
-0.832607
1.14612
2.89059
0.720992
-1.20093
-2.3768
0.0267865
-1.93694
-0.326516
-2.20435
-4.44268
-2.96346
-3.47212
0.628569
0.362791
3.46819
-1.48964
1.22444
-0.768492
-1.33753
0.420789
0.3761
3.16585
2.72768
-0.768744
5.35227
1.89861
1.7639
0.812661
3.01373
1.80217
0.97759
0.710498
-1.65703
3.09819
5.10657
-3.53268
0.478107
-2.24111
2.09929
0.665119
2.5086
3.16379
-0.241731
1.19865
-0.868811
-2.93657
4.32587
-2.68954
-1.66493
-3.71503
-0.624802
-0.31389
-0.797128
-0.222282
1.10324
2.16099
-1.86653
1.3034
1.53874
0.694932
1.47831
-0.355854
-1.09161
7.94382
0.764092
0.490232
1.49469
-2.78987
-1.32715
-2.61016
0.808952
2.10491
-3.19631
-0.375905
2.12062
-0.239584
15.1535
0.757923
-0.639618
0.138922
18.9699
0.497026
-2.30507
14.9901
20.3493
2.74067
24.0981
1.2506
1.36353
0.130571
20.2676
1.62054
1.77773
0.135896
0.525566
0.332801
-1.85475
18.3078
18.8299
3.12524
1.57993
1.23372
24.1075
-0.0909962
-0.223049
-0.21283
1.9608
2.45269
-0.0412456
3.82404
3.32246
0.896736
2.47526
2.04951
2.74697
-0.367653
3.49871
1.15941
1.44151
-0.753799
3.01759
3.23212
2.894
-4.31547
-2.2909
-0.211704
-0.657366
2.26374
0.323891
0.310712
0.587129
0.319535
3.08213
1.92088
-1.92856
-2.09474
-1.86596
-1.54173
2.49772
1.98926
2.17464
2.69561
16.5238
17.924
0.688095
0.588959
0.979735
0.532261
1.12818
0.809745
0.585265
0.907168
3.43236
3.61065
2.73623
25.5727
25.491
-2.4469
-0.9765
1.09948
-5.78948
-2.74188
1.27003
1.28904
-0.381102
-0.230143
2.7016
3.00607
-2.80552
1.98168
1.71998
1.85876
5.29392
5.35869
4.71156
-0.147148
-0.112477
1.29123
1.1518
1.27183
3.22573
0.523513
4.26228
4.83659
-0.240161
-0.326739
2.60311
2.65316
0.764874
-0.00716991
0.178726
0.311179
2.57226
2.51024
1.70651
2.56936
3.897
0.105473
-0.295679
-0.403325
-0.781604
0.560873
-0.605377
-1.80587
-3.51582
-1.56463
17.7314
2.93615
19.5015
0.234262
21.6561
21.9504
-10.6838
2.37382
0.460548
16.5889
22.0502
19.1638
21.5138
12.6984
-6.96325
4.94484
19.5177
18.1023
-7.10531
-7.4181
18.2452
18.3685
2.79519
-3.53101
-3.50103
-4.06321
23.8599
18.2458
-6.45837
-4.13595
3.17458
18.5848
19.6484
-8.30183
-9.27317
-5.34916
1.02032
2.93245
2.80856
22.5425
22.2255
21.1702
21.5571
-10.1078
-9.17056
-0.547887
3.3234
-6.60761
22.5099
2.61248
19.8937
-8.92819
2.50433
2.11181
19.983
1.58308
1.71849
20.9996
19.5625
19.6725
17.579
18.3238
21.2252
20.9357
-5.10627
-0.919127
18.3374
1.59303
1.87522
3.79733
3.15598
2.82268
-9.2709
25.7046
1.89121
22.1625
18.2741
18.2453
-5.85768
-9.46113
-9.55282
3.42486
18.2551
18.3572
-5.97983
-5.05607
18.9609
18.814
19.02
21.2046
17.3909
16.3714
6.55142
2.97133
3.1939
3.18665
3.47245
20.7692
-5.53232
-5.93707
-9.39415
-6.12273
18.7737
-10.0625
-9.24003
-9.68959
20.2197
20.7785
20.9947
-10.2021
1.77577
20.0112
20.5959
20.6559
21.0318
2.51934
2.10565
2.08662
2.15319
18.2886
18.2198
2.26574
-3.63397
22.0669
22.0034
-7.01376
-3.20028
21.8629
7.98502
0.334655
22.2774
21.8492
22.0155
22.0463
19.544
19.2255
20.1615
1.63065
1.72744
1.31515
20.6226
21.2036
21.3372
21.3293
21.2504
20.0581
19.086
6.15854
0.719463
2.73692
2.59851
2.68957
2.59267
24.9714
22.8618
-6.23962
-5.43188
0.498154
0.627498
0.458945
3.31533
2.71383
-7.41425
-9.66015
-10.1336
-10.1946
11.716
4.00855
3.96761
3.54183
-5.7096
-6.2625
-6.14374
-5.42394
16.387
17.5606
18.5938
17.0597
-6.66015
-7.15516
-6.60005
18.3117
18.6224
-4.0341
-4.07449
17.7436
18.8958
16.2402
17.5461
16.6494
16.3611
19.5669
3.0471
3.25842
2.05384
2.33085
18.0457
17.8357
22.1144
22.2884
22.4964
19.6171
0.0346106
17.9213
17.4846
18.3882
-3.6439
20.6699
20.5219
21.4069
19.6741
19.1125
18.8615
18.4126
20.7106
20.3014
20.447
19.8757
-3.9459
18.2302
19.1906
19.1518
19.4339
-4.34296
-4.64499
19.5648
19.2475
18.6951
18.9065
3.86487
3.48145
4.07379
-6.64788
-5.61914
-7.27222
-6.68243
-0.0544696
-1.43955
14.3275
14.1637
1.09045
1.14875
1.12798
1.14492
-1.29936
25.2026
6.60847
5.88991
0.764218
-6.78644
-6.36269
-6.8175
-6.31782
16.2553
15.3227
15.6491
14.5196
1.60714
1.47499
1.616
0.97275
1.01558
1.09756
0.671114
0.887923
0.816013
3.64765
3.43208
3.51492
3.91301
-6.02728
-5.50152
-6.07006
-6.22591
3.28417
2.97923
3.14841
22.0581
22.2717
22.1119
21.5639
4.18543
4.96027
4.40978
23.9213
25.2398
1.42111
24.8832
10.8226
0.890056
0.862822
24.0385
23.8965
0.902679
0.929418
0.933946
1.38356
-7.81726
0.96151
-0.511057
24.2028
24.2316
2.37532
19.7137
0.0626396
1.03922
-4.14913
-5.7888
-1.74202
-1.94816
23.0365
-3.55171
-4.02387
-0.209381
2.02508
-5.16978
-0.0221944
0.122247
0.131343
0.265498
-1.82643
3.07368
3.12391
-2.72747
-2.62267
-2.79574
-0.152675
-0.44134
1.26206
1.30473
1.11626
1.06242
4.62419
22.6855
2.21176
2.17875
-0.0307773
1.18568
-0.44606
0.991688
1.06605
1.0998
25.1483
1.4533
1.39366
-7.89491
-8.72552
-7.73413
-2.36019
-6.38625
-4.84939
-0.420399
-0.364076
-0.394263
14.6086
13.7974
-2.99681
-2.63645
-2.28836
-1.68769
7.24555
-4.62531
-0.928777
-0.763452
-2.3585
-2.65579
25.0057
0.217286
-1.1136
14.4236
-0.103882
0.216849
25.6598
18.73
19.3637
2.22115
1.13914
1.20876
-6.90212
2.61789
6.34781
7.10655
22.2958
22.1092
3.97326
4.47372
4.28173
1.07254
1.0204
23.0432
1.32102
3.55237
3.77443
1.91275
1.72117
1.57909
2.46278
5.6586
5.04412
6.19948
5.5608
2.83904
0.495375
1.7011
-0.725932
1.81008
0.323458
0.745865
0.877517
-5.25625
-6.37052
-1.45472
-0.0723802
-0.450217
-0.946314
9.31906
10.5583
19.4391
19.8565
20.2541
21.4588
0.874445
3.063
2.85804
0.644943
1.28575
17.4019
16.7072
-3.60985
-3.86896
-3.1456
2.05141
0.953638
3.15282
3.50887
6.91564
3.74542
4.3866
-9.45465
-9.88974
1.16176
1.33029
1.13851
1.36537
-2.57404
12.7698
12.0265
11.2117
1.65674
1.75539
1.86665
1.8319
1.97167
1.01911
2.87115
3.04093
-3.40519
-3.25684
-2.89117
-2.05477
-2.29882
-2.57155
-1.32063
0.592273
-1.92513
12.9222
12.0097
10.8602
22.9052
22.8009
4.94918
5.40812
19.7838
20.0209
-0.583952
-1.0744
-0.315406
19.3545
19.6408
8.34038
7.67206
22.8323
16.6612
-8.08336
7.51818
3.67053
5.68751
23.2514
4.41881
-24.4615
-8.43009
-18.8132
-1.3251
22.7641
-6.06387
-12.0424
20.0751
-22.979
-5.64618
-5.83451
4.93749
5.08748
3.94324
-0.611495
-1.16509
7.29999
-4.31086
-4.70021
-8.81805
5.58012
5.00415
-4.68881
-3.93259
-3.57098
-1.14679
0.2546
-0.0241219
19.312
4.00581
4.70148
-3.36696
24.3666
17.3696
17.0662
23.4232
-16.2493
4.39635
-15.1863
-11.3925
23.7168
0.93744
-0.302022
2.94776
20.9944
-11.7587
-11.4045
4.63243
-3.25104
-2.31007
-3.16261
-1.92072
-4.1177
3.27323
13.7947
-12.2464
3.91566
18.9653
19.1067
1.75193
1.6424
-10.2264
-1.95021
20.5104
-7.56182
-9.06927
-0.988471
0.0610474
3.94476
-33.6808
-3.01405
-0.808939
2.81893
17.4524
17.5065
6.2689
-6.35616
-6.57273
-7.33572
-33.9604
0.495997
-10.5686
-10.2912
22.5263
1.18744
0.696095
22.8344
22.6532
-12.8154
-12.8783
0.758223
-11.7396
19.4339
-0.245298
-0.812757
2.55524
-7.2599
14.4973
-0.102423
-0.349026
-9.532
-3.80383
-2.63529
-8.12785
25.2592
16.1628
-11.6084
6.02825
5.64795
16.8515
17.0289
-4.28993
-3.97714
-13.3134
-24.5583
-5.87548
-10.0614
-10.1657
19.5785
-3.23737
-12.6466
23.1551
-17.7537
2.28312
-5.71731
-5.90173
3.56886
3.49153
0.142105
16.3957
4.27695
-24.9081
-12.3509
-12.5766
3.00766
-10.0814
-2.17049
-0.554929
-13.868
-14.0892
6.69731
16.9347
21.7434
-3.03257
2.21018
2.41386
16.541
16.4901
-2.05583
7.91836
-1.46581
-1.3328
-6.16553
3.66762
0.784799
0.338002
8.275
9.54017
19.226
22.5207
22.7402
22.7068
-3.22531
-1.68782
-9.69032
18.2392
18.4353
13.6481
1.17686
15.8091
23.0868
15.2838
14.7645
-7.45559
2.21398
-0.74836
16.2944
16.2698
-4.52681
1.44184
-11.5956
4.57879
-12.075
5.3033
5.15153
20.0409
1.38678
-16.0751
1.15998
-11.253
-0.710457
0.165362
16.2739
15.9627
15.7884
4.9888
4.29673
2.46983
-9.1288
-9.2219
16.8903
2.11893
1.73817
1.72234
0.278462
-0.079898
3.46411
-9.28518
-10.1439
-24.2677
-3.46778
-2.91131
-2.73674
8.14891
7.93906
5.8577
6.18801
-3.73554
-4.15632
-13.9344
3.97142
-2.04681
-2.33878
-11.5226
7.06687
-21.7955
16.0732
-11.43
-11.2048
-19.7077
4.17745
-12.4265
1.9468
2.26373
-12.1552
-10.5295
0.452443
16.7847
-16.5197
4.74016
5.12841
-11.8076
15.3071
-10.6759
24.5894
2.90293
3.37085
4.0508
2.45935
3.05091
0.750073
0.957439
1.82431
3.65154
-17.5101
-16.2974
6.32317
2.62093
1.85628
-0.0562575
-1.22874
-1.55285
1.89417
-8.17965
-9.27803
5.35316
5.03274
-4.32418
-12.9946
-13.2706
2.7371
3.00008
24.3396
-6.94998
-6.50946
-1.86553
21.9492
-2.02453
-1.71558
-5.91206
-5.64248
1.49466
1.7556
2.59805
17.7166
18.2028
-11.1191
-4.97208
1.88032
-11.1272
-10.9487
-11.2913
19.3124
19.0863
-11.4943
2.46462
-18.8586
-19.219
6.23491
5.73484
-12.0421
-11.7605
-11.9364
16.2393
16.4836
-5.68883
-11.8903
-3.03114
5.1335
-7.91539
-8.07599
18.5844
-11.6792
-8.03858
-9.76467
5.09669
23.2559
0.733806
0.122934
2.81914
2.24168
-15.5404
-11.8868
-11.3336
-9.78409
-8.97706
2.7188
2.69149
2.60201
-12.753
-11.9414
18.7123
-4.70023
-4.43037
1.85385
-8.39889
-8.11178
-3.99201
-3.45656
2.46594
16.2944
16.2395
-12.3516
-11.7686
4.05504
4.35946
3.92957
4.84284
5.52916
16.3644
6.66478
22.8425
-8.96731
-9.33165
-8.84773
-8.75562
-7.31067
-8.64882
-11.8116
-11.8675
-0.964009
-1.01043
-1.16005
-0.439936
-1.81753
-5.92503
-6.31261
22.9199
19.0531
-11.8791
0.708002
0.6709
0.257058
13.3814
-0.0579252
2.43267
2.7391
0.78002
0.909443
1.21301
2.23391
2.96524
17.0013
16.6555
16.768
17.1205
-2.3341
-2.88215
18.605
3.43567
3.39531
3.64304
-0.0191706
2.71326
17.9229
-4.95926
-4.39467
18.078
18.4406
17.3996
1.12234
-2.48108
-2.25151
-0.118314
1.98009
2.3948
-0.952554
3.62368
16.7332
16.7726
16.5412
-7.64598
-8.23647
-7.40323
1.17762
16.6717
4.67398
4.01549
-0.199364
22.4295
7.7825
7.6267
7.78384
-10.0352
18.9561
-12.0835
17.356
17.5312
24.1059
25.6034
2.82388
-4.42024
2.88278
-4.93372
-4.56279
0.215029
15.79
0.591387
4.68543
-19.9703
0.208988
0.552598
0.762275
18.0359
2.74868
2.75008
2.82285
3.97791
4.76591
23.7375
17.5157
17.6926
-0.204243
0.0254647
0.411835
21.4959
22.3305
3.5134
18.3568
18.5557
18.2267
17.6704
17.3664
17.5759
2.27808
18.682
18.8583
-12.212
24.0844
3.82931
4.15462
0.306299
0.352958
5.03561
0.612948
0.0194956
-0.486155
2.62689
2.51685
-9.5866
1.53857
1.83305
1.89712
0.0781729
0.450709
8.30907
2.56141
6.58103
-2.19254
20.7264
22.6596
-1.16582
24.3089
-11.1988
4.39395
16.4567
-5.67827
17.8183
18.0993
14.9972
14.9598
1.78969
1.08499
-1.77602
-1.65232
-1.84057
-0.214188
0.180178
-0.071571
6.87291
6.64738
21.1527
21.7595
24.5578
-1.33246
-6.58841
2.89497
3.09887
3.0605
3.49861
3.59542
16.4359
16.2625
1.49032
1.44122
-1.06032
0.291595
0.102796
-0.324576
17.8217
0.393371
1.63169
1.95737
2.5718
2.04433
-13.5099
-13.8669
-13.3173
24.6058
17.8392
17.1929
18.1661
18.6289
6.17096
6.438
20.7838
2.214
2.4397
6.2221
-10.0054
-9.88841
-8.93529
16.7839
16.7576
16.6222
-9.86239
-10.0527
0.554501
-12.1452
19.4905
19.4084
13.9356
13.7917
2.81146
3.00408
2.62553
2.46718
4.98473
4.79511
14.8854
-10.2316
-10.8626
-11.4128
3.39192
3.03055
25.62
18.5487
18.4847
-4.7005
-4.98835
24.9372
22.0298
22.4235
22.8234
22.8607
-3.80692
-4.27581
-14.4838
-12.9118
-16.4467
-11.6928
22.5412
-8.17906
-8.40316
-8.45313
-10.2338
-10.0896
-9.69818
-8.83389
25.0647
25.1775
22.6155
22.4817
24.7946
22.0246
18.5933
18.2201
20.8487
-7.39849
23.6853
2.18815
1.9953
2.18436
3.35293
3.34448
2.86385
1.54171
1.71385
2.0495
2.56255
5.56017
-9.926
-9.87453
-9.34166
16.5794
16.1216
16.526
1.3654
1.19754
0.846635
2.37278
2.53463
2.78932
8.18477
3.30505
3.6076
3.42454
-0.869719
-0.527288
-12.4345
3.14115
2.56903
2.72692
25.1215
24.931
2.70765
2.73096
3.0373
3.35102
-11.0444
1.6475
1.57876
0.89841
1.92056
2.32945
2.40638
2.22198
-2.4979
-2.30441
-2.65988
-2.32685
-9.62966
-11.9014
-11.8608
-11.7407
-11.6972
18.2913
17.519
0.551732
1.27958
4.26073
3.38146
-16.9486
7.9823
-11.5539
-12.4253
-5.80267
25.3958
-11.4753
-12.0569
4.20525
4.78596
3.40628
0.992876
1.16437
22.7183
-7.45766
-7.47473
-6.6027
-8.67657
-9.02293
-8.82172
-10.6207
-10.7099
-10.6804
-5.43265
-5.75726
17.7774
17.4023
0.148565
0.0214143
0.689355
25.3347
20.3996
23.4257
14.0538
-11.6202
-11.6374
-10.4837
-11.3254
-13.2123
17.5235
17.2728
17.0516
-7.18418
-6.38542
-6.81027
-6.1741
-11.4301
-11.1818
-11.4467
-11.4432
22.4785
22.8184
22.3915
22.3688
-8.85225
-7.99421
-8.59126
-7.84579
14.1331
-6.03241
2.7091
2.58697
2.31811
2.66272
-2.19319
-1.78991
-1.96961
-11.4176
-10.6862
-10.0582
-10.6856
0.546348
0.735316
1.11601
2.47556
2.57467
2.32984
2.35322
2.01921
17.4172
17.818
17.3095
16.9236
2.71388
2.56551
2.54626
2.61154
-9.67706
-10.0069
-10.163
-4.44891
-5.20418
3.40811
3.75632
3.17481
-12.902
-13.53
-1.12119
-0.970307
1.48815
1.97998
0.989677
1.54172
0.820512
0.23894
0.774969
-5.53828
-5.75688
-7.03401
-7.46287
-6.99088
-7.07559
15.8806
16.1327
-1.14587
17.6717
17.6885
19.5398
1.06303
1.38756
1.74226
1.4636
17.8032
-3.34514
-2.53565
-2.43604
-1.83826
2.69152
2.35303
16.4325
16.6406
16.2153
16.4445
-3.85579
-3.47642
-4.28928
-7.3309
-7.67489
-7.81007
17.6259
17.4
18.2338
18.0797
-8.12739
5.01882
15.8278
-7.81503
-8.11482
-6.8755
-7.83184
-22.6882
5.93634
-22.2759
-21.8861
4.13203
4.4351
3.66079
3.88189
-2.07888
17.4981
17.7797
3.588
3.4243
3.84077
-0.0084864
-0.32783
-11.9292
-11.9703
-11.8904
-9.0634
-8.87245
-9.07703
-8.61176
19.1192
5.9479
5.83355
-5.85198
-6.05939
16.8108
16.962
16.7996
19.7517
-5.07769
4.65582
-0.497674
-0.774019
-0.587684
1.02487
-9.79939
-10.2932
-9.33128
1.80685
1.95415
1.59619
18.2695
18.3815
2.88075
2.499
-7.97995
-7.65261
-8.45165
5.19418
4.91369
5.59012
-7.13192
-7.36638
-7.04608
-7.44609
-7.65346
17.7953
17.2681
17.572
-4.21846
15.5804
15.3159
-2.07349
-2.21469
-1.11133
2.10801
1.47559
-12.4218
-12.3436
4.31086
4.00146
18.9312
18.4832
4.28454
4.05228
3.37177
2.93521
1.80284
1.82943
1.25498
1.29625
1.76302
1.76388
17.7103
17.4931
0.223751
-0.287758
-0.430227
-0.0847343
-0.776768
18.3497
18.1916
18.0229
22.5569
22.6713
22.306
22.6764
17.2404
17.9831
18.0248
17.8397
0.205288
-0.272237
18.6173
18.7315
3.10393
3.14923
3.55895
3.87341
3.71472
-12.2511
-12.1822
-12.0935
-11.9414
20.1054
3.02954
2.83577
19.3723
19.2301
18.9252
19.2901
-0.489345
-0.442518
-0.912311
-6.15948
-6.35327
-5.92594
1.90382
2.38422
1.4121
17.6862
17.765
18.0907
18.1832
-4.28451
-3.96803
-3.65159
14.6938
-13.0916
-12.7477
-12.2561
0.473962
-7.97821
-8.89785
-8.42734
-8.54226
-0.19087
-0.438583
0.391404
-0.0480648
2.85886
-10.8198
-10.7957
-10.1183
-10.5195
2.58503
2.73525
2.47689
2.31348
2.10794
2.10122
2.41042
2.12037
1.78989
23.1872
17.7808
17.9179
-12.3634
-12.4604
23.8828
-6.43737
0.676387
0.188813
-0.872978
-0.550908
-1.63446
-2.15086
-1.48163
-11.6053
-11.082
-26.7189
-25.8616
15.6884
15.9958
16.2255
16.3815
4.75972
3.06054
2.78453
3.17824
-25.0938
16.4231
16.5458
15.8548
15.9735
-9.14735
-8.81536
-8.5403
-7.88498
1.2026
1.25566
1.15199
4.79778
-9.41784
-9.17165
-9.48358
-9.48676
-14.113
-13.5179
-12.5141
4.44582
4.28844
5.33525
18.1356
17.7608
17.7453
17.7036
9.24042
9.21375
-2.97949
-2.04853
-1.59948
-1.64397
18.6675
18.589
18.41
-8.68276
-15.8894
-17.2895
19.0386
18.9047
4.90374
4.87386
5.10226
2.70495
2.67935
2.88137
-12.3288
-12.521
-12.3168
15.9911
15.6657
15.9154
16.3903
22.5059
17.5629
17.9173
17.381
17.5736
-5.72181
-10.7146
-5.25454
-5.5148
-1.53961
-1.3649
-0.470462
-0.699869
3.2278
2.73439
2.60327
2.55866
3.05664
-0.955069
0.113289
-0.623849
19.6857
3.72831
3.57659
3.66561
-1.67347
-0.917267
-9.42227
-9.50101
-9.47097
-10.8615
-10.1916
-10.7586
5.89491
23.0965
4.60638
21.7443
21.8318
2.51686
2.0177
2.60438
-5.97685
-5.96583
-6.24859
0.56651
-11.3323
-11.6685
-11.5369
18.8378
19.1125
1.82757
1.49309
1.28159
1.57587
4.64727
4.6836
21.7426
21.8053
1.81327
1.49307
2.08587
1.91653
2.48277
2.77886
18.7029
4.73145
4.91438
4.67489
-1.02453
-0.53876
-0.970724
-20.597
-7.96363
-8.5653
-8.74502
-8.30557
18.6816
18.2368
18.004
18.3276
-5.76227
-6.72889
-6.17833
-11.1628
-12.4858
-15.9527
-12.5508
-18.1425
0.404318
0.245486
-0.907021
-0.660627
-6.70288
-7.25575
-6.73391
-5.95186
4.07526
3.86066
3.00941
3.35469
19.6686
15.4833
15.1921
15.5385
-7.02157
-6.65842
-6.79965
-7.04233
-14.0838
-12.6497
-9.88821
-9.77338
-8.99941
-5.50806
-5.17134
-5.37922
-4.47718
15.6374
15.869
0.502929
0.452937
-9.56686
-9.94599
-10.0642
-10.109
0.977586
-6.43477
-6.04612
-6.48471
-6.20003
2.37783
2.57795
2.50756
22.8173
17.717
-11.5795
-11.0377
-11.1475
-10.4744
1.70825
1.94509
-10.8332
-10.9072
3.79751
19.0535
2.27121
1.99006
0.910211
-5.74111
5.39322
5.13626
5.24354
-6.89105
-6.62033
19.0589
-9.82871
-10.9702
-10.1902
-13.1908
0.239472
0.643193
0.340722
21.542
21.4918
25.7088
-4.70507
18.7674
2.60214
2.71237
2.2079
2.50794
-0.458012
0.02948
0.79921
0.424838
2.64512
2.65183
2.73463
2.72175
-10.5386
-9.92545
-9.40618
-10.241
2.13065
2.04711
3.16783
2.20066
-7.41516
-6.91337
-7.97765
-13.4375
23.2608
-7.71697
-11.4233
-10.9378
0.9866
0.959627
20.4484
-14.9848
2.71538
3.16709
2.86487
19.5539
0.128339
-0.25496
0.274451
0.889795
3.65461
1.07622
0.618464
1.5849
1.84802
21.699
21.835
21.1331
21.4335
2.25684
2.36408
2.5176
1.97877
-0.129017
-0.45984
-0.786788
-0.357937
4.07642
4.30022
4.4143
4.04948
18.8909
18.7862
18.0574
18.3528
18.3458
18.418
-8.5246
-7.71309
-8.93428
-9.26891
0.326962
0.172845
-0.120061
6.46855
-12.0582
-12.1195
-11.9013
-11.346
-11.1771
-9.90083
-11.4262
-12.2585
-12.6447
-13.0291
-15.532
2.13827
1.65164
25.7213
18.2742
17.9814
17.7716
17.5525
-14.2733
-13.1692
-12.8087
0.582438
-5.53832
-5.90681
-5.37427
-11.4932
-11.5628
2.18392
-11.0224
-11.1057
-3.23065
-3.80149
-4.12708
-9.24952
-8.23757
-7.96479
-8.90545
-12.1976
-12.2836
-12.0736
7.98128
6.94913
-8.75775
-7.89211
-8.40938
25.7342
-8.06309
-7.72328
1.37046
1.48879
0.389338
1.48381
1.32963
1.55628
-13.2171
-11.9665
21.0271
21.2401
0.825545
1.32123
17.8403
17.9809
18.0032
18.2475
-4.94688
-10.9291
-10.9935
5.00898
5.14113
4.48117
5.03567
0.944492
0.930011
1.33754
1.06999
0.709749
0.798831
1.23594
1.01328
-0.397755
-0.312696
-0.444721
-12.5508
-12.2778
-11.5202
-12.1009
-10.5066
-10.7034
12.7756
-8.39733
-8.40035
-8.47619
5.64217
18.6966
18.8847
18.8414
-0.766887
-0.885675
0.365807
0.529206
0.500616
0.945407
-10.3271
-9.74639
1.95967
2.18834
1.59274
1.95126
1.67465
2.09307
2.14833
2.43511
18.0005
17.9693
18.4498
18.3678
-12.3439
-12.3621
-12.279
19.227
18.9799
18.5759
18.8592
4.93211
5.04242
4.69715
18.6186
2.34547
1.88911
1.92043
1.84896
-17.5452
-15.5543
-19.2812
24.7419
-3.73017
24.9429
25.1329
25.1995
23.1348
-14.1163
22.6353
23.2785
23.3308
22.8798
25.762
20.8115
25.5215
25.5517
24.7423
24.7844
-11.782
21.7658
21.7222
0.517983
24.043
-6.14992
21.4072
23.3169
23.325
-7.05161
23.5016
1.09551
24.5448
23.1149
23.0569
21.4344
-1.30953
-1.0057e-05
20.9365
20.8132
-15.7862
24.921
1.09892
2.08851
-1.33802
5.72964
6.67494
-7.07552
25.4356
22.2954
25.6696
25.6192
25.5717
-14.8327
-15.3583
25.2025
-15.3981
23.496
23.3858
22.6963
23.7883
-4.22749
-15.7437
0.47798
0.599241
25.7799
-18.5261
-19.027
21.491
-25.9948
20.821
20.8436
20.8296
2.56584
2.42854
25.1899
-0.915984
1.36074
1.56612
-18.6099
22.582
22.5386
25.3762
4.40417
23.9249
21.9278
25.449
21.5408
22.9067
2.70868
23.3664
19.1348
19.1715
0.631153
6.5776
22.328
17.5632
23.0556
24.9872
2.21669
20.3165
25.1988
23.1257
23.1749
25.0632
24.2948
24.2319
23.6031
23.9928
23.9157
21.1403
21.0205
23.163
20.1966
23.8304
19.8499
0.840353
24.2703
11.2133
20.8045
-1.2995
23.6374
23.48
23.6404
23.7018
6.07282
20.9568
20.8469
-26.4426
25.5567
25.5723
23.4051
-0.589086
-0.579764
-21.0881
23.7512
-27.6623
-26.7261
23.7635
17.6611
17.8532
-1.41589
18.9017
0.194554
0.134353
18.093
22.1633
23.1424
-0.755264
-1.31626
23.2471
22.245
4.00847
20.7824
24.8601
22.0537
19.5243
22.1852
21.0205
-10.3756
-10.5939
-10.2498
25.2539
22.8409
-12.2363
-12.2818
4.27872
4.19335
-13.9947
-11.5301
-11.0637
0.5305
24.6649
24.3208
-5.78604
1.37242
22.7233
22.612
22.8602
25.03
24.955
22.5512
22.4056
23.8995
25.063
22.3796
22.223
24.3329
24.2581
23.6097
23.6025
5.04381
22.1105
21.8982
23.2985
24.3079
23.875
21.7153
25.4526
19.5285
19.7001
23.2752
23.2008
22.9588
24.3493
21.3988
21.2809
1.80826
21.794
0.155498
0.0289561
0.0394817
-12.8159
-2.6997
24.0533
-17.413
23.125
2.27241
19.7963
25.3247
22.6639
22.5041
22.5732
24.6665
23.7969
1.03409
11.0823
10.1978
21.9262
22.0581
-1.02721
1.08635
-3.44472
-3.2341
23.5083
21.9422
0.333987
19.377
19.7591
24.1511
23.1625
-21.7673
7.78058
7.15246
22.4214
-4.68782
22.5579
22.3317
22.3717
25.3659
-6.20803
-7.19227
-7.03792
15.1514
23.2635
-0.772405
-1.0504
3.67216
0.16173
-20.179
19.5231
20.0848
1.03053
0.756455
0.594586
20.5755
1.76
25.5361
25.4818
24.8068
22.8805
-22.9664
22.7581
22.7929
22.8606
22.934
22.1467
23.6411
23.7135
-2.13991
-6.31777
21.5551
8.55565
3.30832
3.32058
19.7056
-0.287879
-0.433203
-3.24303
-3.65797
25.1982
-25.6755
-0.979753
-1.40773
22.647
22.7727
20.5971
20.5091
0.515907
0.306677
-0.509777
-0.834325
22.6234
-8.2843
-8.00519
1.04453
23.04
22.9934
8.06269
23.6379
23.1998
22.0829
24.3076
20.3122
22.891
-2.07463
22.0361
21.8187
-17.8651
4.79519
20.3175
-17.9978
7.67027
8.30647
7.57083
-17.8306
1.73025
5.20699
-4.7605
20.1045
25.1478
23.0815
22.9036
22.7846
-2.05969
23.0735
23.1069
20.5707
-5.00642
-6.93829
-5.61382
20.6154
19.559
19.4477
-0.0400779
0.228739
-13.3949
21.5579
21.4852
21.867
21.2843
-1.02495
-1.36095
3.45205
3.13684
-1.47138
-1.35919
0.907418
24.9997
25.0589
2.24077
24.241
-6.50731
-1.102
-0.966611
-0.685584
-11.2886
-10.8288
-11.0374
0.085391
-4.10619
-4.67073
1.95002
1.1328
1.26572
0.454039
2.99241
-4.11069
-4.09478
24.2762
24.2458
0.855615
21.2098
-10.6572
-10.8852
-9.61212
-2.32493
22.2124
18.5395
22.0319
10.1928
24.8129
20.5302
20.5017
1.10825
1.089
1.2668
20.9202
20.8889
24.6771
0.517102
21.8169
10.3012
20.4798
20.4496
19.9621
0.558466
-1.17891
-9.04352
-9.25438
-4.5333
-5.05994
23.6715
23.6008
1.42651
21.5713
22.9225
24.5609
-0.128814
-0.546825
0.779112
-5.20881
0.687565
1.69817
1.57101
24.3184
20.6826
2.67099
2.567
2.03373
2.41111
-4.18949
-3.15276
3.47101
3.49115
7.95891
8.74313
25.4336
0.925799
0.594222
-1.87415
0.255036
0.314589
0.318531
-0.875404
-0.512866
0.721917
0.635359
0.402561
-0.940854
20.4573
20.3595
19.6763
-6.70108
-6.50407
-7.25005
-1.04803
-1.17873
-6.24334
-9.77576
-10.0679
-1.99378
-1.58118
-3.6704
-3.83697
19.6109
19.5407
24.4657
23.7028
4.02954
-6.47799
-6.65883
-6.61388
-0.288557
23.6643
23.5666
-2.82621
-2.33688
21.8808
24.2154
22.4173
22.3321
24.9702
18.9504
19.1517
19.0203
1.20772
1.08322
21.7225
24.657
24.6129
24.8759
24.8486
7.40069
8.65667
-7.91839
-6.9387
-10.5336
1.65641
-8.7212
-8.21487
-4.62988
-4.77615
-5.12407
-5.41527
-5.4617
-7.60656
-8.04629
21.6005
21.5173
0.612898
0.697306
-0.743861
-6.05655
20.3277
24.5748
20.285
24.5781
22.226
22.3577
22.297
25.0364
-5.94855
-3.07193
-3.27898
-3.46759
-3.49503
-2.62519
-2.47709
-12.5243
-12.9207
19.954
7.32201
22.0386
21.7823
7.77284
20.9961
-12.0562
0.0295288
23.9263
23.7243
-0.724116
-0.742879
20.2689
-7.13498
-7.05469
25.0055
-10.138
-9.41959
-4.92039
18.4324
18.4264
-2.18641
22.5408
24.1517
18.5053
18.531
19.9347
19.8386
19.5968
0.902231
0.989039
0.866901
-6.60702
-1.12398
-0.980994
1.59307
1.17389
2.69249
2.51802
2.63692
19.6785
19.4782
19.5396
-3.57732
-0.630052
24.3192
0.948185
0.953437
0.990107
1.76425
-10.7807
18.4523
19.0943
18.7539
19.4244
-3.63288
17.9167
17.8236
21.2845
20.8899
18.4278
5.25502
15.4974
14.992
14.5135
23.3741
23.2663
-3.12897
-3.40154
-1.7511
-1.02933
2.83218
-5.6168
2.26438
23.1318
25.2163
25.1587
1.94428
22.5199
-0.207055
-15.6392
19.1466
18.9675
18.9274
19.8601
20.0182
5.12522
-6.33781
-6.17536
-6.2165
-0.321275
23.145
23.9932
23.6056
-0.0532361
0.769633
3.07579
3.32581
18.0157
-0.405959
-0.932573
24.0162
24.0174
22.3688
22.4662
22.2352
-0.68721
23.8813
23.8654
0.94265
0.19598
17.6718
22.2675
22.216
20.1145
1.00896
2.60083
2.23762
19.7377
2.88723
18.2389
22.8489
19.1134
19.2337
22.265
-0.705731
22.6661
-3.47611
25.0894
20.0672
20.0853
25.3379
25.3731
25.3863
25.029
22.5728
1.86619
22.7955
22.9333
-10.0589
19.5394
1.7618
0.949684
1.17781
1.08322
1.22454
-1.27934
2.31807
2.22684
-0.286364
-0.668612
-0.918628
20.201
20.1566
-1.90312
-2.14145
-6.68664
-6.86753
-6.93037
-1.92609
-1.81017
1.5898
1.64724
-4.09379
9.48502
10.4159
17.557
17.3788
1.97413
2.17983
-6.05425
0.816269
0.263997
0.855406
0.83117
21.9817
5.31283
17.6939
17.2354
-3.73672
20.072
-17.5948
24.9453
0.486006
-0.0361022
2.27202
2.48556
-5.33901
-5.43824
-5.16523
23.6921
15.062
15.8001
16.3804
1.82422
1.59754
1.4327
23.0077
18.8335
18.5159
18.4261
18.3637
3.10922
2.67572
2.65456
-7.68769
19.2224
19.1954
19.2846
18.0312
17.9753
25.3354
1.56957
1.83501
1.56344
-8.45524
-8.32663
-9.27516
-8.42437
2.80545
2.96813
18.6827
18.406
3.11962
3.18729
19.234
18.9875
19.0031
-3.43548
-3.06407
0.989224
0.886695
19.3673
19.4766
0.301459
-9.47308
-9.88571
1.95118
1.75091
2.11775
-8.74661
-9.04036
0.802397
0.753787
18.7083
18.9719
18.6976
-8.17383
-8.18117
0.545088
0.784631
0.452886
-4.35813
-4.04142
-11.115
-11.3746
22.2393
1.70924
1.57756
-12.7675
4.67764
5.00507
20.8068
20.8317
20.3723
18.8714
19.004
23.0273
1.5556
0.411676
0.137848
0.741662
0.908157
21.5169
3.46471
-0.0898144
-17.9801
12.1964
12.626
-7.58499
-7.32359
24.6397
-1.52278
5.8482
5.82013
4.07598
-9.98138
17.2094
16.7649
-9.97414
20.2169
19.8689
21.8777
18.5916
18.8297
-1.6706
-6.05449
-6.14999
3.42183
17.8462
17.9322
17.954
19.3602
19.8749
20.0274
21.5917
21.692
-4.23297
21.9571
21.8486
17.9329
18.5816
18.5256
24.8142
24.8709
2.06789
2.01898
1.91322
1.00281
0.368016
21.0786
21.5498
21.2375
25.3284
-11.7241
2.4633
2.48157
2.98473
3.10345
21.0035
4.04755
3.46741
3.59642
-6.03523
-3.33945
-2.21599
-6.35192
-6.44537
-0.0640218
0.0262938
-4.6476
-4.056
-10.8291
-10.4247
-10.7564
1.08279
17.2354
17.6278
-0.449039
-0.566651
-0.102744
19.0707
18.9
18.8027
-1.21294
-1.11639
-1.35647
-10.8469
-23.1213
4.82737
4.96756
-10.7651
-10.4779
1.36245
1.7154
18.751
-10.258
-10.2494
2.94525
2.84559
0.364002
0.404012
6.1134
6.68801
7.66748
19.7847
19.7764
-14.4363
18.7827
18.8523
1.59793
0.88687
1.30254
1.43871
0.865193
-4.42939
-2.80446
-3.58272
7.33163
8.11339
9.49774
8.98176
19.9042
20.1485
-1.36658
-1.48107
1.46284
1.67105
23.0036
25.2802
18.5894
18.5014
20.799
-5.02217
-4.70083
-4.74025
-0.596203
24.5199
16.8186
16.96
3.12657
2.96615
20.9664
20.9717
-10.307
-10.3474
1.81607
1.19501
0.944683
20.0653
20.1847
4.13653
4.53959
19.3019
19.3866
22.6258
22.4678
-21.5682
0.138174
2.7191
2.61772
-3.06077
-5.10433
23.1443
-16.0694
-3.3065
-9.73861
-10.0484
-3.01796
-2.30941
-5.61698
-5.55111
-0.517465
-0.441886
-0.886412
2.65777
2.8848
0.397877
0.89166
0.697671
23.6288
22.8944
25.3934
22.0313
22.1201
21.5921
22.0549
1.28871
1.79091
1.34051
-4.41804
-4.40559
2.84368
0.926688
0.787517
0.862283
-3.60626
-3.54973
13.8876
21.6903
8.63564
18.1323
17.8276
-13.0922
8.3625
-0.777984
9.23558
-25.1446
12.109
-12.354
-14.2537
-12.0362
5.18448
5.65534
8.52005
6.5595
-12.0977
-9.66173
-8.87977
8.11155
9.13167
9.35682
12.3659
14.108
-5.83058
-7.39038
7.60029
4.84832
8.86286
3.37901
-12.2475
-12.3079
11.2415
12.2337
3.92231
-18.1366
-22.302
-9.5203
12.6297
-8.00417
3.68425
11.3
11.4395
6.78504
6.8299
-7.35479
-7.82801
-9.07651
-12.8742
-12.4974
1.2768
-1.17017
12.7444
12.9634
3.39488
2.86026
14.4094
-10.2222
13.2514
11.5497
0.607449
-2.61829
12.4509
6.52241
11.1851
2.67858
14.3371
19.3397
5.92214
9.87914
7.64077
2.93501
9.94476
4.33413
4.65414
7.56481
7.44805
-14.5608
-14.7348
2.14812
-4.10385
-20.2833
5.98798
-5.73877
-7.97951
14.5353
0.0869655
12.528
-0.400301
-1.3914
-12.1001
-14.7136
-9.0486
-10.3063
0.72203
-12.192
-12.1279
5.78534
-1.67299
-2.24666
-1.0791
-0.0669514
1.12572
16.3467
-9.05386
-2.74239
-1.83585
-17.6059
22.5398
-4.30088
-29.6224
-23.0208
-26.1189
3.33369
-13.5918
-15.0821
11.9785
10.8682
-8.66303
10.6064
-9.22558
-9.89367
0.850269
0.793379
0.460738
0.248258
-11.4708
1.05171
4.24301
-4.53588
11.2381
-0.362649
-1.45984
-15.3138
16.5576
7.83678
10.7834
7.47214
7.29421
-21.6426
-12.47
10.4847
-18.5541
-6.31133
14.2359
14.4943
11.9846
13.0629
-15.0093
4.81721
2.19541
1.28998
10.7584
10.5185
8.99407
8.42567
9.11441
5.16484
12.11
6.62022
-4.90243
-1.57957
-0.270042
-1.51681
-20.5886
15.9877
-3.98358
4.29364
4.55953
-11.5486
-12.8224
23.1589
-18.3207
-19.7657
17.5741
12.885
-4.91
2.53035
-5.49911
-6.06488
5.26285
12.4625
1.01621
-12.8412
2.45713
1.21029
2.78036
3.54179
16.1973
16.1674
-15.6256
1.12082
-5.96942
-5.75319
2.3571
-6.54725
-11.3009
12.0403
-0.00488268
0.866496
14.093
14.0157
7.77444
8.24889
2.94405
3.38379
-0.441763
-0.951888
-1.38397
16.3488
-4.35569
17.1079
16.9153
17.3314
-8.99982
-9.48626
-10.6276
6.44795
-7.18205
13.8846
-6.9545
-5.95873
-7.2796
5.50493
-26.7037
-7.03852
10.3108
11.2726
10.9108
14.0716
13.3132
12.8924
10.2671
10.2281
-12.9655
7.07822
12.3077
11.6563
-7.03159
-27.432
10.9968
-25.5222
-20.4106
3.41095
4.18388
5.64239
6.16512
-18.0646
2.56193
3.6716
4.45058
12.6349
11.6993
1.69209
-2.05512
-2.64455
-0.445713
0.15818
-16.647
-15.4615
2.3126
1.33668
13.0339
11.7464
11.383
4.79278
5.50849
9.78977
8.72838
6.80509
9.49038
9.09872
8.30464
8.52596
8.75425
10.7465
3.16078
2.94111
2.86773
-4.49324
14.5287
8.1562
8.65296
12.5163
-5.94283
16.5558
0.243171
0.414972
-12.8415
-2.63825
-1.92786
-2.67934
-11.5343
-11.2806
0.335514
3.66449
2.91847
-2.86857
-1.76641
17.2284
9.37896
2.73176
3.60907
-4.19795
-14.3417
8.03255
14.817
14.9055
9.72267
9.41295
-0.48862
-0.915544
-1.53152
-0.865937
-0.277147
5.19749
13.6293
12.693
4.75838
16.6812
17.0417
17.0585
13.5473
13.7754
6.18033
13.0282
4.87151
5.36722
-2.63287
-1.61814
12.013
11.0754
2.61449
3.38498
9.75109
10.5969
-7.30731
1.50976
1.63964
1.59806
5.79843
-12.7798
-10.077
5.43078
6.10185
-1.80555
-1.40507
-2.47275
6.95189