/*--------------------------------*- C++ -*----------------------------------*\
  =========                 |
  \\      /  F ield         | OpenFOAM: The Open Source CFD Toolbox
   \\    /   O peration     | Website:  https://openfoam.org
    \\  /    A nd           | Version:  6
     \\/     M anipulation  |
\*---------------------------------------------------------------------------*/
FoamFile
{
    version     2.0;
    format      ascii;
    class       surfaceScalarField;
    location    "1100";
    object      phi;
}
// * * * * * * * * * * * * * * * * * * * * * * * * * * * * * * * * * * * * * //

dimensions      [0 3 -1 0 0 0 0];

internalField   nonuniform List<scalar> 
44611
(
1.52339
-2.14638
0.622999
1.52339
1.44605
-1.44605
1.93933
-0.493279
-1.31923
-0.707842
2.02707
-1.31923
-0.0924871
-2.17439
2.08949
-0.566102
1.29694
-1.29694
0.180612
1.8545
-2.17627
0.730212
2.37678
-0.340662
0.41307
-1.7323
-0.796685
-1.20032
0.796685
1.2928
-0.553534
-1.33866
0.553534
0.743403
-0.595258
-0.82437
0.82437
-1.17128
1.3519
-0.0105863
1.28969
-1.27911
-0.137619
-1.86301
2.00063
1.52463
-0.215051
-1.30958
1.21957
-1.21957
-1.10217
1.10217
-1.51218
1.51218
-1.1953
1.1953
1.50503
0.0195961
-1.92111
0.40893
-0.920209
-0.786429
1.70664
-1.62805
-1.26862
1.26862
0.124367
-1.42542
1.30105
-1.49509
1.49509
-1.28174
-0.220256
1.50199
-1.37308
1.37308
1.65589
-0.143712
-0.460593
1.51142
-1.05082
1.72082
-0.501253
1.32888
-0.21482
-1.11406
-0.701518
1.0982
-0.396677
1.1886
-1.46243
0.273832
-0.881261
0.881261
-1.14581
1.03985
0.105966
0.953986
-0.953986
1.1924
-1.33002
-2.284
0.813229
-0.81323
1.01655
-1.2316
1.82978
-2.04483
-1.6094
-0.622601
-0.820019
-0.789382
-0.899032
0.899032
-1.0403
1.02971
1.92875
0.0931343
-1.46621
0.10446
-0.299792
1.21498
1.1618
1.7323
0.166445
0.532845
-1.21786
2.03788
-1.46621
-0.983877
-0.478557
1.29987
-1.29987
0.904989
-0.4191
-0.485888
1.33099
-1.14538
-0.185612
-0.801347
-0.644705
1.44605
0.000762606
-0.0799833
0.0792206
1.67763
-0.387937
-1.6979
-0.165107
-0.357293
0.909297
-0.552004
-0.0385098
0.0453691
-0.00685923
-0.137105
-0.611985
0.749091
-1.16106
0.459541
0.0113246
0.0605268
-0.0718514
-0.0327888
0.00737435
0.0254145
0.856378
0.213793
-1.07017
-0.00203703
0.00203702
1.47505
0.524482
0.240629
1.23442
0.798832
0.8788
-0.0232595
-0.00952931
1.23264
-0.504294
-0.728345
0.918378
0.314261
-1.07257
-0.62533
-0.265072
-0.807501
-0.982623
-0.476508
-0.910102
1.38661
0.00431597
-0.0428258
-0.00846916
0.034268
-0.0257989
-0.729121
0.853489
-0.650862
-0.286193
0.937056
-1.17522
0.954965
0.000416709
-0.00041674
0.0918446
0.817453
0.996833
0.652345
0.863853
0.467134
1.15956
-0.295707
-0.0782465
0.639114
-0.560868
-0.364259
-0.480608
0.844868
0.411678
-0.746285
0.334607
1.14035
0.859647
-0.748967
0.758121
-0.00915528
-0.794131
1.06796
-0.889922
0.198468
0.691454
-0.887383
-1.11781
-0.844701
-1.4393
1.10977
0.33713
-1.4469
0.928444
-0.0720659
-0.199323
0.747275
-0.547953
-0.957888
-1.08694
-1.4344
-0.850112
-1.11558
-1.61174
0.761625
-0.868236
1.27717
-0.346695
0.80794
-0.461245
-0.982184
0.174683
-0.419258
-0.537796
0.957054
-1.3111
0.89184
-0.264829
0.830676
-0.565847
-0.833366
-0.0767357
0.75394
-0.617516
0.831309
-0.893902
0.59411
0.0493701
-0.0380455
0.0366398
-0.045109
0.596686
-0.811506
0.850218
-0.683774
-1.49528
0.68275
-0.793924
0.111174
0.812529
-0.708069
0.902055
-0.0902264
-0.811828
-1.40132
0.000935112
-0.000935116
0.00093511
1.06977
-1.06977
1.07145
-1.07145
-1.15451
1.36171
-0.207207
0.624541
-1.07694
0.4524
-0.294926
1.36638
-0.899364
0.581882
0.317482
-0.929822
0.0304582
0.829886
-0.624686
-0.205201
0.0285395
0.337289
-1.13142
-1.25335
1.25335
-0.440075
1.35845
-0.107259
-0.465125
0.00625604
0.458869
-0.153084
-0.312042
-0.64366
0.490576
0.372148
1.02449
1.40243
0.616002
-0.0203732
0.975338
-0.0787664
0.932255
-1.25116
0.359767
-0.840375
-0.283893
-0.934243
0.334063
0.60018
-1.11933
0.185088
0.0893897
-0.800532
-0.963933
-0.315176
-1.45721
-0.726999
-0.233394
1.72848
1.06766
-1.20234
1.30831
-0.0637627
-0.682522
-1.05303
1.69779
-0.644759
0.0860551
-1.41277
1.35587
1.97887
-0.860869
0.860869
-1.64364
0.782774
-0.00538985
-0.00236269
0.00775255
-0.025535
0.0299785
-0.00444347
-0.00633477
0.00396454
0.00237022
0.0471072
-0.0569547
0.00984742
-0.00396217
-0.00423595
0.00819812
0.00416204
-0.00812422
-0.0546735
0.00924921
0.0454243
-0.594147
0.294348
0.299799
-0.0633945
0.0488989
0.0144956
0.0149347
-0.0646871
0.0497524
-0.0041941
0.00835614
-0.00484131
-0.000449388
0.00529071
0.0183411
-0.000751336
-0.0175898
-0.00164658
-0.00868659
0.0103332
0.00593628
0.00473872
-0.010675
-0.00240048
-0.00546215
0.00786263
0.00491436
-0.00423086
-0.000683496
0.00765186
-0.00211146
-0.0055404
0.0124668
0.0117646
-0.0242314
0.0362179
-0.0237511
0.000875233
-0.00580212
0.00492689
0.00534927
-0.00447403
0.635074
-0.436606
0.0908349
-0.0456513
-0.0451837
-0.0176296
-0.0195574
0.037187
0.0263742
-0.0452021
0.0188278
-0.00373421
0.0037341
-0.00623181
0.00165588
0.00457592
0.0309549
-0.0111427
-0.0198122
-0.0458153
0.00974534
0.0360699
-0.0854412
0.0149402
0.0705011
0.00349612
-0.00800719
0.00451108
-0.00764707
0.0052956
0.00235149
0.108627
-0.0348549
-0.0737727
-0.00377588
0.062459
-0.0586833
0.0425932
-0.041054
-0.00153922
0.00166578
-0.0199298
0.018264
-0.0584999
0.0157283
0.0427716
-0.0382055
0.0538189
-0.0156134
0.00328633
-0.00762618
0.00433984
-0.00591804
-0.00220617
-0.00597644
-0.00719938
0.0131758
-0.0102124
-0.0425176
0.0387416
0.0327688
-0.0752864
-0.00381144
0.00976019
-0.00594875
0.0321202
0.00821124
-0.0403315
0.0187599
-0.00541772
-0.0133422
0.0031149
-0.00311493
0.00927073
-0.0282246
0.0189539
-0.00672223
0.00411894
0.0026033
0.0606896
-0.0586309
-0.00205892
0.0303884
0.0323094
-0.0626978
0.0565221
-0.0261337
-0.00434392
-0.00237831
-0.0200119
0.0210158
-0.00100385
-0.00796894
-0.012043
0.00375693
-0.0109563
-0.00602146
0.00744577
-0.0014243
0.00424192
-0.0064315
0.0021896
-0.0245394
0.0394741
0.0208296
0.0109291
0.00741205
0.0183034
-0.0230563
0.0285848
-0.0055285
0.233998
-0.197145
-0.0368537
-0.00620386
0.00263112
0.00357274
-0.630474
0.344281
-0.021816
0.0138471
0.0868972
0.463947
-0.550844
0.0547581
-0.0715804
0.0168223
-0.00374179
0.00570908
0.012124
-0.0178331
0.00126982
-0.00126982
-0.0558251
0.473438
-0.417613
0.0134834
-0.00215211
-0.0113313
0.0080184
-0.00386292
-0.00415548
0.00500644
0.00264542
0.0084311
-0.0265022
0.0180711
0.0178299
-0.0204563
0.00262649
0.0100742
0.00775563
-0.0264215
0.0530664
-0.0266449
0.00442984
0.00358856
-0.00243069
-0.00377316
-0.0116984
-0.0163297
0.0280282
0.00190804
0.00858025
-0.0104883
-0.00342823
0.00557093
-0.0021427
-0.00661088
0.00318266
0.00579212
-0.000221186
0.00058812
0.0152489
-0.015837
-0.00936592
-0.0295191
0.038885
-0.0097212
-0.0361079
0.0458291
-0.431083
0.356771
0.0743128
-0.0337501
-0.00445532
0.0180218
0.0308768
-0.0488986
0.0165297
-0.00335388
-0.020625
0.020337
0.000288037
-0.0177484
-0.00287662
0.0255376
-0.0154634
-0.0469849
0.0279212
0.0190638
-0.0013557
0.00623905
-0.00488335
-0.00426014
0.055659
-0.051399
0.0564294
0.0493685
0.0062904
-0.00166501
0.0246178
-0.0229528
0.0164627
-0.0158746
0.0147977
-0.00631899
0.0213623
-0.0150433
0.00535804
-0.0195108
0.0141528
-0.00940441
-0.00898804
0.0183925
0.00995528
0.00657441
0.000550868
-0.00241363
-0.0272373
0.0186806
0.00855669
-0.0224607
0.0252684
-0.00280772
-0.049698
0.0439491
0.000145969
-0.00637777
-0.00360829
0.00538566
-0.00177736
-0.0263994
-0.567747
0.0574892
0.0356737
-0.0931632
-0.0135644
0.00695024
0.00661413
0.0106924
-0.00717069
-0.00352169
-0.0479736
-0.0243432
0.0723166
0.320666
-0.527358
0.206692
-0.00505467
-0.00515772
-0.0893106
0.224033
-0.134722
-0.920765
0.30878
-0.005592
0.00642427
-0.000832275
-0.00789143
0.0071401
0.034315
-4.69843e-05
0.0259537
0.00836128
0.0245709
0.00722279
0.013793
0.0125808
0.00417346
0.00961952
0.000761585
-0.0240211
-0.0168282
0.00679505
-0.0161513
0.0093563
-0.0157061
-0.00112216
-0.00891101
-0.0250434
-1.58111e-05
0.0250592
-0.039567
0.0137682
-0.246238
-0.184845
-0.0257217
-0.0376728
0.0229464
0.0308725
0.0315031
-0.390592
0.493349
-0.102756
-0.510893
0.501738
0.00161671
-0.00161671
-0.00606201
0.00256978
0.00349224
-0.0739793
0.0260057
-0.00160585
0.0441991
-0.434348
-0.486418
0.164653
-0.599
-0.553688
0.0672705
0.00292512
0.0291951
0.026225
-0.0266959
0.000470867
0.0398587
-0.0450302
0.0051716
-0.00670668
-0.0137497
-0.0130257
-0.00475103
-0.00899862
0.0585189
-0.142863
0.0843439
0.245338
0.221876
-0.467214
0.345002
-0.0996642
0.556483
-0.0167043
0.0202181
-0.00351381
-0.0147436
0.0212415
-0.00649787
-0.0314479
0.0414596
-0.0103339
-0.0492746
0.0596085
0.0367353
-9.54717e-05
0.0264014
-0.0330009
0.0265031
0.00321702
-0.0204818
0.0053082
0.00287198
-0.00818017
-0.00275927
0.00695744
-0.00419817
-0.0448297
-0.000985561
-0.0141544
0.0405285
0.0276894
0.0213862
-0.0490757
0.036921
-0.0300959
-0.0068251
0.0314652
-0.0307026
0.0332219
-0.0289059
0.00763894
-0.00221779
-0.00542112
0.511555
0.123519
0.582991
-0.0714358
0.886189
-0.419055
0.0856569
-0.00729563
0.000921698
0.00637394
-0.00797314
0.00258329
-0.0098272
0.00673002
0.00309718
0.00168889
-0.0115161
0.011977
-0.00524699
0.0048655
0.0197498
-0.0246153
0.00950287
0.00276677
-0.0122696
0.00693639
-0.00772579
0.000789414
0.00536377
-0.00698485
0.00162109
0.00324539
-0.00685367
0.0123353
-0.0299649
-0.00881872
-0.00659675
0.0154155
0.00606004
-0.0148788
0.00733241
-0.0139292
-0.0211053
0.011576
-0.00484842
0.0312498
-0.00836957
0.0121265
-0.0070459
0.0119114
0.0240379
-0.488877
0.546615
-0.0577383
-0.0222597
-0.00389318
0.0261529
0.00143006
0.0183197
0.0144266
0.0210931
-0.0727947
0.0517016
-0.0325501
0.0536433
0.000540073
-0.00507581
0.00453574
0.00572096
7.1164e-05
0.00626104
-0.00500464
0.759621
0.00920417
-0.768825
-0.0522072
-0.512925
0.193307
0.319618
0.0343815
0.00547718
-0.00765563
-0.0333984
0.0267259
-0.0394518
0.0712322
-0.0317804
0.442222
-0.54745
0.105229
-0.0390724
-0.030215
0.0692874
-0.0736016
0.0345292
-0.358434
0.594441
-0.236007
-0.578621
0.558248
-0.0590376
0.163466
-0.104428
0.106455
0.127543
0.00324314
-0.00311228
-0.000130861
0.255927
0.114751
-0.370678
0.262183
0.0184635
-0.0167977
0.00838503
0.0229967
-0.0313817
-0.0201496
-0.0112982
-0.0329468
0.0232256
-0.0168057
0.050376
-0.0335703
-0.886031
-0.188477
1.07451
0.57177
0.373557
-0.945327
0.470409
0.287282
-0.75769
0.180512
0.289896
-0.50819
0.619364
-0.467147
0.6318
-0.30603
0.392927
-0.441245
0.362479
0.755406
0.0112367
0.0197182
-0.0196678
-0.00338848
0.0304364
-0.0222251
0.00490134
0.0308412
0.00185037
0.008842
-0.00762601
-6.03744e-05
0.00768638
-0.00577563
0.00878162
0.506503
-0.0425557
-0.0896393
0.448111
-0.358472
0.416864
0.00132245
-0.00212196
0.00079946
-3.9523e-05
0.00238477
-0.00234525
0.0584522
-0.766962
0.70851
0.00228055
-0.000208276
-0.00207228
0.162788
-0.104269
-0.0391145
1.17946
0.285895
-0.962662
0.676767
-0.00151645
-0.00221779
0.00217878
-0.00369524
-0.753689
0.339728
0.413961
0.573177
-0.859899
0.493849
0.36605
0.0860977
-0.0236388
-0.267562
0.498504
-0.230942
-1.20381
0.559105
-0.00173916
0.00173913
-0.696305
0.669906
-0.00833047
0.00398655
0.777036
-2.03038
0.748949
-0.758315
0.00936577
-0.555157
1.62493
-0.607147
0.695516
-0.0883685
0.385274
0.257072
-0.642347
0.827496
0.00248111
-0.00248114
-0.244246
0.77861
-0.534364
-0.733122
-0.466231
0.800294
-0.623572
0.0361724
-0.0687225
-0.864617
-0.339193
-1.2853
0.824057
0.536212
-0.614458
-1.03596
0.470115
0.0455899
0.463544
0.877846
-1.34139
-0.829544
1.29309
-1.3847
-0.7726
0.3535
-0.68963
-0.0829694
-0.868257
0.00835855
-0.809805
1.33924
-0.814756
0.18473
0.395107
0.00147734
0.00261958
-0.00409693
-0.128736
0.364613
0.213835
-0.903465
-0.365539
0.153247
0.212292
-1.06982
0.624742
0.124207
-0.633101
0.0027728
-0.00299316
0.000220352
-0.955439
0.0320861
0.0814546
0.0227712
-0.465853
0.65043
-0.184577
-0.343778
1.47633
-1.82011
-1.01067
-0.104915
0.924613
0.521439
-0.0194564
-0.0920977
0.0726413
0.82964
-0.508975
0.363787
-1.69313
1.3982
0.896411
-0.404595
0.211326
0.193269
-0.990584
1.85145
-0.737234
0.5356
0.201634
-0.261823
-0.475412
-0.207809
1.24438
-1.45219
0.00227728
-0.000660575
-0.305678
0.78168
0.0456503
-1.31788
0.198547
-0.519047
-0.00134823
0.00134823
-0.0118776
-0.610648
1.54147
-0.179755
0.611648
0.0696639
0.0389631
-0.023847
0.0561564
0.241034
0.115737
-0.163561
0.0109727
0.608091
-0.598887
-0.555884
-0.284491
0.901544
-0.418587
0.00251229
-3.12072e-05
0.647096
0.0321469
-0.480778
-0.590435
-0.0331377
-0.900616
0.310181
-0.534566
0.70918
-0.434305
0.550042
-0.718795
-0.266149
0.477475
-1.34653
-1.49024
0.649367
-1.04376
0.0544627
0.00205942
-0.253192
0.831665
-0.578472
0.0407524
-0.103581
0.0608077
0.0427735
-0.0586519
-0.0449296
-1.18956
1.05137
0.138192
0.228054
-1.27182
0.828234
-0.361324
0.0310286
0.23097
-0.261999
-0.0867023
0.117731
-0.00783588
0.0222624
0.016202
0.0167529
0.00484423
-0.393393
-0.569269
-0.619388
0.0920372
-1.55825
-0.0237228
-0.0617683
0.769967
-1.52999
0.760027
-0.877607
1.64757
-0.752958
0.213078
0.16343
1.23109
1.55825
0.170236
0.0542542
-0.049696
-0.00455835
-0.00437675
1.64321
-1.02721
0.914869
-0.283213
0.00452016
-0.0966179
-0.0760854
0.0806056
0.874143
0.200365
0.688531
-1.06284
0.643786
-0.374309
-0.937446
0.478497
-0.652922
0.0376403
0.81625
0.533036
-0.576422
-0.896824
0.320402
-1.08694
0.537985
-0.0476224
0.120264
0.0329832
0.150714
-0.00376725
0.00352382
0.000243429
-0.0022899
-0.145412
-0.573383
-0.39165
0.0185553
1.58798
1.08673
0.00176603
-0.00443083
0.0026648
-0.00345088
0.00521692
0.00985952
-0.00595014
-0.00390938
0.00250211
0.00735742
-0.00356629
0.00657034
-0.00300405
0.00545838
0.000248973
-0.00570735
-0.0010987
0.00947627
-0.00837758
0.00675957
-0.0065016
-0.000257967
-0.00463572
-0.00232217
0.00695789
-0.000421037
-0.00555981
0.00598085
-0.00442162
0.00212087
0.00230075
0.00152602
0.00722551
-0.00875153
-0.00136582
0.0107505
-0.00938466
-0.0103066
0.00365636
0.00665022
-0.00119436
0.00975599
-0.00856163
-0.0153129
0.0152128
0.000100103
-0.00679588
0.00344879
0.00334709
0.00992264
-0.0117892
0.00186654
-0.0166308
0.0115976
0.0050332
-0.00417648
0.00375921
0.000417274
0.00786797
-0.0092338
-0.0178964
0.00119914
0.0166973
-0.0100854
-0.00781105
-0.00695265
0.0029561
0.00399655
0.00025255
-0.0072052
0.00491075
0.00414
-0.00905075
-0.0076145
0.00062879
0.00698571
-0.00256922
-0.00504529
0.000454828
0.0053413
-0.00579613
0.00936158
-0.0100544
0.000692864
0.00859969
0.000761881
-0.00768061
-0.00333497
0.0110156
-0.00546413
0.00504309
-0.00129453
-0.00479128
0.00608581
0.00281554
0.00426739
-0.00708292
-0.00768203
0.00708571
0.000596319
-0.00283443
-0.0048476
0.00620431
-0.00877352
-0.0100523
0.00172062
0.00833168
-0.00355557
-0.00649672
0.00119697
-0.00552595
0.00432898
0.00457393
-0.000598216
-0.00397571
0.00388724
0.000686692
-0.0169029
0.0292382
-0.00247182
0.00469554
-0.00222372
-0.00538061
-0.000549073
0.00592969
1.85313e-05
-0.00539914
0.00186707
-0.00334587
0.0014788
0.0274738
-0.0436429
0.016169
0.0263646
-0.00837383
-0.0179908
0.00233396
-0.00879485
0.00646088
0.0103366
-0.000770178
-0.00956646
0.00391742
-0.00273047
-0.00118695
-0.00743146
-0.00275077
0.0101822
-0.013958
0.00900396
0.00495402
0.00510505
-0.0104211
0.00531608
-0.0056538
0.00109228
0.00456153
0.0137473
-0.00368723
-0.01006
-0.00795213
0.0216994
0.000438635
0.00766336
-0.008102
0.0029174
0.00775507
-0.0106725
-0.00685003
-0.00198142
0.00883144
0.00570326
-0.0121118
0.00640853
0.00845444
-0.00716029
-0.00129414
0.00301075
-0.00926841
0.00625766
0.00993986
-0.0224177
0.0124778
0.00234745
-0.00652381
0.00417636
-0.00696448
-0.000875793
0.00784027
0.00981139
-0.00525567
-0.00455572
-0.00778822
-0.000462771
0.00825101
-0.00641223
-0.000795388
0.00720764
0.00662708
-0.324278
0.317652
0.191546
-0.184919
0.00962819
8.90986e-05
-0.00971729
-0.00185145
-0.00801257
0.00986401
0.00077642
-0.00401141
0.003235
-0.00921313
0.00598017
0.00323296
0.00174277
0.00843788
-0.0101807
-0.0113172
-0.00399571
-0.00469982
-0.00661735
0.0109614
0.0154032
0.00824324
-0.00824321
-0.00455606
-0.00450659
0.00906265
-0.00936299
-0.00594309
0.0153061
0.00641457
-0.00241302
-0.00400155
0.00715907
-0.0066268
-0.000532274
0.00479638
-0.00554812
0.00787946
-0.00233134
-0.00900363
0.00109439
0.00790923
-0.00396947
-0.00503416
-0.00811874
0.00809079
-0.00809079
-0.00202062
-0.00424275
0.00626336
-0.00799909
0.00762581
0.000373279
-0.00122558
-0.00677351
-0.0039615
0.00672875
-0.00276726
-0.00590382
0.00364521
0.00225861
0.00175598
-0.0076598
-0.00479826
-0.00249727
0.00729553
-0.010845
0.00478967
0.00605538
-0.00943214
0.00985353
-0.000421388
-0.00529731
-0.00413483
-0.000268002
0.0179272
-0.0176592
-0.0193825
0.0281215
-0.008739
0.00450477
0.000409593
0.00796598
0.0006598
-0.00862578
0.00985339
0.00658992
-0.0164433
0.0286073
-0.0428044
0.0141971
-0.008902
0.010475
-0.00157301
-0.00553435
-0.0107746
0.0163089
0.00847419
-0.00535151
-0.00312268
0.00159243
0.00688176
-0.00428479
-0.00427856
0.00856335
-0.00711327
0.010124
-0.0122172
0.00536717
-0.00441297
0.0103884
-0.00597545
-0.0012297
0.00338957
-0.00215988
0.00401978
-0.0059005
0.00188072
-0.00977456
0.0021121
0.00766246
0.0108999
-0.00334516
-0.00755477
0.00448211
0.00641782
-0.00530365
0.00124674
0.00405691
-0.00470552
0.00472405
-0.00888933
-0.000379086
-0.00597193
0.00320094
0.0046482
-0.00784915
0.00474024
0.00408107
-0.00882131
-0.00464402
0.00993649
-0.00529247
0.00821844
-0.00944402
-0.00883664
0.00777044
0.0010662
-0.00576748
0.0023166
0.0083148
-0.00297995
-0.00533486
0.0105618
-0.0114455
0.000883751
-0.00443611
0.00391865
0.000517459
0.0058565
0.00339116
-0.00924766
-0.00540841
0.0147792
-0.00937079
-0.0155903
0.00550491
-0.00566762
-0.00814191
-0.00742345
0.0155654
0.0134975
-0.0216394
0.0391338
0.00976507
-0.00823588
0.00604273
0.00219315
0.00664688
0.00106953
-0.00771641
0.00794843
0.00499078
-0.0129392
0.0311883
-0.0636605
0.0324722
0.0489336
-0.0177454
-0.00628353
0.00614724
0.000136285
-0.0233075
-0.0246674
0.0479749
0.113887
-0.0133355
-0.100552
-0.00678144
0.00798479
-0.00120336
0.0295434
-0.00409918
-0.0254443
0.0405631
-0.0110197
-0.00245264
0.00688093
-0.00442829
0.00130082
0.0103377
-0.0116385
-0.00506004
0.000545599
0.00451444
-0.000739503
0.00901695
-0.00827745
-0.00870865
0.0118785
-0.00316988
0.0163052
-0.0115676
-0.00473755
-0.000953683
-0.00449203
0.00544572
-0.00163748
-0.00367227
0.00530975
0.00557265
0.00475849
-0.0103311
0.00565337
0.000572277
-0.00622565
0.0118339
-0.00715783
-0.00467609
0.0101906
0.00164332
0.00471835
0.00506247
-0.00978082
0.00821845
-0.00330769
-0.0010383
-0.00634256
0.00738085
0.00219212
-0.00768214
0.00549002
0.0107352
-0.00823309
0.0103009
-0.00782886
-0.00247206
-0.00497476
0.000133454
0.00662863
-0.00364192
-0.00298672
-0.000167242
-0.00925464
0.00561273
-0.00337925
-0.00440168
0.00778093
0.0104725
-0.0123239
-0.00821935
0.00393457
0.0023677
-0.0073676
0.0049999
0.00586383
0.00697017
-0.00462272
-0.0108563
0.00319404
0.00766224
0.00611348
-0.00393388
-0.0021796
-0.00293589
-0.000851688
0.00378757
0.000498483
0.00450707
-0.00500555
0.00648271
-0.00598423
-0.000556089
-0.00810378
0.00865987
-0.0794393
-0.192898
0.272338
-0.0361412
0.0306328
0.00550844
0.00567561
0.000411746
-0.00608735
-0.00256027
-0.00761322
0.00263031
0.00498291
-0.0068813
-0.00665769
0.013539
-0.00475244
-0.00823761
0.0129901
-0.00463486
0.00929956
-0.0046647
-0.0037818
0.0101983
-0.00641655
0.00564006
-0.00345035
-0.00218971
0.000629864
0.00501019
-0.00208727
-0.0020892
0.0017036
0.00669919
-0.00840279
0.00201206
0.00566749
-0.00767955
0.000394587
-0.00800855
0.00761396
0.00419401
0.011206
-0.0154
0.000259701
-0.00765833
0.00739863
-0.00659301
0.00685271
0.00401987
-0.00631317
0.0022933
-0.00560067
0.00675227
-0.0011516
-0.00113762
-0.00446305
0.00694508
0.0045473
-0.0114924
0.414393
-0.221086
-0.00561777
0.0111545
-0.00553669
-0.0112933
0.00361272
-0.00955054
0.00682517
-0.00486525
-0.00195992
0.00495477
0.00119063
-0.00614541
0.00729169
-0.00587171
-0.00141998
-0.00126447
-0.006903
0.00816747
-0.00109849
-0.00739898
0.00849746
0.00293457
-0.00918369
0.00624912
-0.00780514
-0.00711486
0.01492
0.000281459
0.00690363
-0.00718509
0.00054889
0.00621602
-0.00676491
-0.000792915
0.00874135
-0.0107413
0.00362798
-0.00298619
-0.00858922
-0.00741844
0.00662207
0.00079637
-0.00362771
-0.00379072
0.00700664
-0.00682113
-0.00018551
0.00358032
0.00342632
-0.00698099
0.00952289
-0.00254189
-0.00780336
0.000822363
-0.00536385
-0.00434784
0.00971169
0.00537104
-0.0171246
0.0117536
0.0121117
-0.00774582
-0.00436586
0.00729372
0.00481796
-0.0407934
-0.0138802
0.00556475
0.00357648
-0.00914123
-0.0106229
0.00688206
0.00374085
0.00345202
0.00328038
-0.0067324
0.0153675
-0.00713718
-0.0082303
0.0102064
-0.0140272
0.00382073
-0.00426831
-0.00429926
0.00856757
0.000340716
-0.00941082
0.0090701
-0.00388693
-0.00765818
0.0115451
0.00949763
-0.00698487
-0.00251276
0.00409214
0.005469
-0.00956114
-0.00225799
-0.00804384
0.0103018
-0.00498497
-0.00477241
0.00975738
0.00273124
0.00511436
-0.0078456
0.00682121
-0.00752605
0.000704834
0.0012615
-0.00943038
0.00816888
-0.0261544
0.0205788
0.00557557
0.00805948
-0.0342138
0.00971935
-0.00688265
-0.0028367
-0.00749921
0.00131926
0.00617996
0.00368127
0.00454623
-0.00822749
0.000922559
0.00317779
-0.00410035
0.0579678
0.0236954
-0.0816631
-0.0274735
0.00889615
-0.00855544
0.00496721
0.0016426
-0.00660981
0.000160798
0.00600938
-0.00617018
-0.021945
0.0148702
0.00707474
-0.0139202
-0.00802475
0.00236822
-0.0075777
0.00520948
-0.0409836
0.000652085
0.0084705
-0.00877107
0.000300569
0.00518048
0.00610655
-0.011287
0.00705169
-0.00249047
-0.00456122
0.01975
-0.0104792
0.0107972
0.00658647
-0.0173836
0.000581609
-0.00921938
0.00863777
0.00177796
-0.0129164
0.0111384
0.000213855
-0.0128982
0.0126843
0.00521918
-0.00813736
0.00291818
-0.010299
0.00341739
0.00688159
-0.00350357
-0.00535774
0.00886131
0.0029859
0.00548555
-0.00847146
0.00704247
-0.00678992
0.00446861
0.00388978
-0.00835839
-0.00949218
0.00446662
0.00502557
-0.0017843
-0.00770788
-0.00741764
0.00845434
-0.00103669
0.00855098
-0.000553616
-0.00799736
-0.00168654
-0.00202966
0.0037162
-0.00281266
0.0137309
-0.0109182
2.80932e-05
0.01189
-0.0119181
-2.82997e-05
-0.0103425
0.0103708
0.00788139
-0.0126998
0.0048184
-0.0113261
0.00331352
-0.008354
-0.00297208
-0.00708951
-0.00487497
0.0119645
0.0037171
-0.00998996
0.00627287
-0.00802767
-0.00127947
0.00930714
-0.00632407
-0.00869711
0.00174869
-0.00576428
0.00401559
-0.00306224
0.00471813
-0.0220942
0.0110813
0.011013
0.00805285
-0.00128993
-0.00676292
-0.00588588
0.0067808
-0.000894924
0.0139533
-0.00374689
0.00930892
0.00464442
0.0116206
0.00831507
-0.00724598
-0.00106907
0.00190285
-0.00484899
0.0376177
0.0106725
-0.00343281
-0.00723973
0.00814764
-0.00926329
0.00111565
0.00105841
0.00708923
0.00830542
-0.00893779
0.00063237
0.00412049
0.00418493
-0.00320609
-0.0161764
-0.0111582
-0.00858115
-0.00759531
0.00772043
-0.00189426
-0.00582617
-0.00639121
0.00587438
0.000516832
0.00254802
0.00182943
-0.00437744
-0.0127739
0.00578036
0.00699358
-0.00610249
-0.00545969
0.0115622
-0.0233554
-0.0188825
0.0422379
-0.0100232
0.00600107
0.00402216
-0.00552557
-0.00449766
0.0110626
-0.00823277
-0.00282988
0.00302511
0.00772205
-0.0107472
-0.00867901
0.00758031
0.00212631
-0.00892956
0.00680325
-0.00677163
0.00524522
0.00152641
-0.00183346
0.00346273
-0.00162928
-0.00451204
0.0160507
-0.0115387
-0.0244904
0.0199784
0.138827
-0.241584
-0.185451
0.0664859
-0.020211
-0.0462748
-0.0107777
0.00474426
0.00603343
-0.0118139
0.00103624
-0.00422877
-0.00571833
0.00994711
0.00558559
-0.00981437
-0.0121618
0.0215088
-0.00934697
0.0178167
0.0270387
-0.00552995
-0.011255
-0.0415013
0.0527562
0.0307705
-0.0420254
-0.00119948
0.00746052
-0.00441141
0.0242515
-0.0198401
0.0116601
-0.0284683
0.0168081
0.00146822
-0.00855317
0.00708495
0.0171084
-0.0047759
-0.0123325
0.0142869
0.00282142
0.00540864
0.00497314
-0.0103818
-0.00526383
-0.010064
0.018841
-0.00877695
0.00343287
-0.00507035
-0.00295834
-0.0385635
-0.0349577
0.0735212
0.0428352
-0.0654482
0.0226131
0.00484354
0.00595833
-0.0108019
-0.00254374
0.00738728
-0.000137912
0.00609624
0.00281907
0.00519282
-0.00801189
-0.00274478
0.00834979
-0.00560501
0.00582934
0.00189109
-0.00402109
0.00958583
-0.00236416
-0.00217876
0.00454291
-0.00997989
0.013441
-0.00346115
-0.00585134
0.0141286
-0.00827729
0.00979266
-0.00135477
0.0064577
0.0108626
-0.00150864
-0.00935399
0.00360291
0.00419783
-0.00780074
-0.0109475
0.00619506
-0.00413375
-0.00640621
0.01054
0.00909518
-0.00470856
-0.00438663
0.00193735
-0.00643972
-0.00424151
0.0106812
-0.00585811
0.00415006
-0.00839157
0.00317003
-0.00919938
0.00602935
-0.00632386
0.00949389
0.00588631
-0.00436785
-0.00151846
-0.0075474
0.00379045
0.00375697
0.00870114
0.00127464
-0.00997578
0.00296626
0.00406482
-0.00703108
0.00472224
0.00565725
0.00820508
-0.00985168
-0.00821426
0.00317485
0.0050394
0.017481
0.0228276
-0.0403086
0.0368298
-0.019245
-0.0175849
0.000642754
0.00657009
-0.00721284
-0.0055737
0.00621645
0.00179487
0.00477522
0.00968194
-0.00446276
0.00366734
0.00533925
-0.00900659
-0.000180542
-0.00452497
0.00548419
-0.00146432
-0.00598929
-0.0114793
0.00931229
0.00216703
-0.0111843
0.0104448
0.00675585
-0.00285434
-0.0039015
0.00189452
0.011603
0.0118344
0.00542943
0.00617358
0.0065798
-0.0101354
-0.00140672
-0.00892794
0.0103347
0.0133404
0.00177913
-0.0151195
0.0197832
0.00880159
0.0314434
-0.00290883
-0.00547035
0.00837919
-0.00623794
0.00332911
0.00420106
-0.00475013
-0.00875537
-0.028565
0.0373203
0.000548446
0.00781869
-0.00836713
0.0107998
-0.00856085
-0.00223895
-0.0166665
-0.000378844
0.0170453
-0.0442135
0.0206744
0.0235391
0.0353062
-0.0259171
-0.00938903
0.00298723
0.00636004
-0.00934727
0.0130045
-0.0204279
-0.000199603
0.00602895
0.00465932
-0.00485892
0.00406326
0.00196569
0.00425482
0.00522145
-0.00532215
0.00957697
-0.0022448
0.00746624
0.00856362
-0.0224838
-0.00594198
0.0049883
-0.00604317
0.00389364
0.00214953
0.000603713
0.0220333
-0.0252288
0.00319545
-0.00685425
-0.00399079
0.00521602
0.00154355
0.00567085
0.00719693
0.0087248
-0.00659848
-0.00666471
0.00666467
-0.0375579
0.0113457
0.0262123
0.00503779
-0.00676537
0.00172758
0.00678648
-0.00164954
0.00430314
-0.00265361
-0.00190009
0.00190009
0.0188706
0.0179592
-0.00827654
0.00731542
0.000961119
0.0316461
-0.000773608
0.0067218
0.0042702
-0.010992
-0.00248865
0.00921045
0.0017589
0.0079147
-0.0096736
0.00661652
-0.0031645
0.00877741
-0.00987589
0.0380245
0.0183774
-0.0564019
-0.00553765
-0.00521124
0.0107489
-0.0133418
-0.00332467
-0.000303139
-0.0130387
0.0139712
-0.0172959
-0.00616322
0.000692869
0.0254388
0.00177218
-0.027211
0.010195
0.0152439
-0.0268433
0.0286155
-0.00263635
0.00778014
-0.00514379
0.00311718
0.00514187
-0.00825906
-0.00398392
0.00398391
-0.0044011
0.00711033
-0.00270924
-0.00651256
-0.033981
0.0168992
0.0170818
-0.0119476
-0.00759122
0.00460725
-0.00460723
-0.00365099
0.00365097
-0.00294293
0.0126565
-0.00971353
-0.00105553
-0.00726141
0.00831697
-0.00824464
0.00610261
0.00214204
0.00105211
-0.00537557
0.00432346
0.00586163
-0.00141091
-0.00445072
0.00691375
-0.0107703
0.00936357
-0.00677155
0.00669669
7.48739e-05
-0.00422201
-0.00201593
0.00614797
-0.00992977
0.00299082
-0.00299083
0.00462189
0.00359656
0.0052256
-0.0119811
0.00363905
0.00834202
-0.0147101
-0.000227236
0.0149373
-0.000314962
-0.00996005
0.010275
-0.00720157
-0.00852957
0.0157311
0.00625576
-0.00406364
0.00282163
-0.00650502
0.00368339
0.0257991
-0.000389132
-0.02541
0.0237202
0.00331849
-0.00704003
0.0078693
-0.000829271
-0.0115118
0.00463049
-0.013652
0.00214016
0.0132854
-0.00865495
-0.0100064
0.00078702
-0.00674912
-0.00325728
0.000698344
0.00592372
0.0177468
0.00988149
-0.0276283
0.00392746
0.00614054
-0.010068
0.00723701
-0.0167339
0.00949686
0.00440873
-0.0044087
-0.00943028
0.00257809
0.00685219
0.0033218
-0.00858795
0.00526615
0.00290141
-0.00290142
0.00867805
-0.00565294
-0.0122152
0.0100092
0.002206
0.0028667
-0.00702446
0.00415776
-0.0131023
0.0143015
0.00362501
-0.0070409
0.0034159
0.00625613
-0.0054625
0.00555277
-9.02757e-05
0.00579626
0.000252296
-0.00604855
-0.0209025
0.0238639
-0.00296143
0.020916
-0.000339051
-0.020577
0.0100747
0.00513808
0.0102886
0.0123751
-0.00391977
-0.0100382
0.00434529
-0.00826507
0.000273101
-0.0103113
-0.00396823
0.00592337
-0.00195514
0.00390748
0.00245002
-0.0063575
-0.00571041
0.00571038
0.00422734
0.00389189
-0.00811923
0.0020718
-0.00207181
0.00610071
-0.0108093
-0.0080632
0.00797188
9.13274e-05
-0.265176
0.0604713
0.204705
-0.16668
0.244454
-0.0777734
-0.431857
0.304925
0.00960386
-0.000964588
-0.00863927
-0.00645963
0.000853336
0.0056063
-0.00359293
-0.465393
0.320917
0.144476
-0.152587
-0.312806
-0.000846613
0.0110372
5.93452e-05
-0.0147694
0.0138268
-0.00869133
-0.00513545
0.0138861
-0.00621918
0.0058166
0.000402588
-0.00427969
-0.00706867
0.0113484
-0.00712367
0.00608538
-0.0073814
-0.000949554
0.00833095
0.0220251
0.00419991
-0.00016173
-0.0207407
-0.0282713
0.0346687
-0.00639734
0.0122918
-0.00683262
-0.00305805
0.00305804
0.00178279
0.00615881
-0.0079416
-0.00574275
-0.00247028
0.00821304
-0.00395996
0.00368853
0.00271184
0.00433985
0.00661932
-0.0111688
0.0133999
-0.00223105
-0.000350962
0.0187164
-0.0183655
0.0210857
-0.0214366
-0.000457082
-0.00512352
0.00558061
-0.0328994
0.00793287
0.0249666
-0.0276914
-0.00520792
0.0333324
-0.0253995
0.0042458
0.00247924
-0.00672504
0.00549254
0.00649902
-0.0120442
-0.000228639
0.0122728
-0.00963301
-0.00241119
-0.00248487
0.0548085
-0.0523236
-0.0147295
-0.0228284
-0.00465639
-0.00167837
0.00122206
-0.00501185
0.0037898
-0.000390757
-0.00601431
0.00640507
-0.00649001
0.00609925
0.00289227
0.0135418
-0.0164341
-0.0141078
-0.0034778
0.0175856
-0.0112156
-0.00621404
0.00758363
-0.00136959
-0.00514451
0.00674798
-0.000951726
-0.0323095
0.000507239
0.0318022
-0.014052
-0.0182574
0.0346903
-0.0341831
0.0216897
-0.0187646
-0.00500617
-0.00119878
0.00119878
0.00430368
0.00104559
-0.00118784
0.00549152
-0.0134759
-0.0149924
-0.0178873
0.0014853
-0.00148531
0.0032825
-0.0032825
-0.00190033
0.00190034
0.00601977
-0.00123009
0.0012215