/*--------------------------------*- C++ -*----------------------------------*\
  =========                 |
  \\      /  F ield         | OpenFOAM: The Open Source CFD Toolbox
   \\    /   O peration     | Website:  https://openfoam.org
    \\  /    A nd           | Version:  6
     \\/     M anipulation  |
\*---------------------------------------------------------------------------*/
FoamFile
{
    version     2.0;
    format      ascii;
    class       volVectorField;
    location    "1100";
    object      U;
}
// * * * * * * * * * * * * * * * * * * * * * * * * * * * * * * * * * * * * * //

dimensions      [0 1 -1 0 0 0 0];

internalField   nonuniform List<vector> 
29884
(
(7.48869 0.0597892 -1.03798e-16)
(5.33077 0.0256486 8.88013e-17)
(5.41193 -0.115446 5.01556e-17)
(7.11019 -0.076145 1.59591e-18)
(7.21686 0.103418 -2.99434e-17)
(5.74391 0.155774 7.22522e-17)
(7.89868 -0.117008 -3.51701e-19)
(7.39731 -0.00033954 4.25192e-17)
(4.70209 0.121971 2.60492e-17)
(7.13537 0.0177751 7.83187e-17)
(7.44362 0.00866275 -3.31746e-17)
(7.20163 0.195484 2.08171e-17)
(8.07935 -0.132293 -2.46814e-17)
(7.16763 -0.112435 2.44477e-17)
(7.19106 0.0993751 -3.29074e-17)
(4.43654 -0.0564851 8.52809e-17)
(8.23431 0.0512951 -3.53411e-17)
(6.67877 0.195728 -5.94822e-17)
(6.53023 0.163462 0)
(4.18527 -0.0039369 -1.64956e-16)
(7.80563 0.210307 1.45031e-16)
(4.94063 -0.0377786 0)
(8.00609 -0.0625466 -4.45937e-18)
(7.11443 -0.0216394 0)
(7.07074 -0.0132306 0)
(7.59529 0.0429968 -2.79207e-17)
(7.85692 -0.00918081 0)
(8.02838 -0.0440388 8.38233e-17)
(5.16037 -0.0249727 8.97616e-17)
(5.17078 0.113704 6.96875e-18)
(5.4007 -0.0082849 -1.65479e-17)
(4.81536 0.088915 4.96609e-16)
(8.00155 0.0367236 -2.47253e-17)
(7.44408 -0.0314609 0)
(7.27766 -0.0596478 -7.92601e-17)
(7.50855 -0.105536 6.2374e-17)
(5.02477 -0.0351967 7.74225e-17)
(7.55357 0.132373 9.77211e-18)
(5.35818 0.146124 -7.87497e-17)
(7.78861 -0.152618 -3.65032e-17)
(5.03294 -0.0508962 0)
(7.05947 0.0703556 1.73375e-17)
(7.60673 0.19353 -4.76666e-17)
(7.23647 0.281964 -3.13395e-16)
(6.97226 -0.0164603 1.91442e-17)
(7.58626 -0.151829 -2.16656e-17)
(8.02995 -0.203515 0)
(7.68738 -0.117488 -6.53763e-18)
(4.80755 0.0345746 -1.46831e-17)
(8.36172 0.0905529 0)
(7.37492 0.124995 0)
(7.18551 -0.0744421 6.79606e-18)
(4.72208 -0.152221 3.74993e-17)
(8.42341 0.0293652 1.03383e-16)
(7.21048 -0.0620117 -8.23484e-17)
(7.09807 -0.136969 6.16647e-17)
(4.41859 -0.0181531 9.65091e-18)
(7.99507 -0.0537748 0)
(6.67568 0.0514214 6.38114e-17)
(6.90846 -0.141695 -1.01349e-16)
(7.77743 0.161608 -1.82314e-17)
(7.82656 -0.00862837 2.4309e-17)
(4.71628 -0.100537 0)
(8.13708 0.0517553 -4.39551e-17)
(7.12328 -0.0692596 2.93186e-17)
(7.00885 0.0796794 -6.35836e-18)
(7.46797 -0.043525 8.75143e-18)
(7.8407 -0.117297 5.78055e-17)
(7.42275 -0.0944706 -3.83321e-17)
(7.3373 0.0660632 5.55886e-17)
(7.24751 0.196256 3.85908e-17)
(7.67262 0.0658069 -1.17448e-17)
(7.51797 0.101891 0)
(5.63192 -0.138887 0)
(7.31695 -0.104794 -4.72475e-17)
(6.92434 -0.0925365 -1.83803e-17)
(8.14555 0.105869 0)
(7.89008 -0.123042 0)
(8.0969 -0.116605 0)
(5.10469 0.0347674 0)
(7.68076 -0.0795519 5.08309e-17)
(5.23415 -0.0515736 0)
(7.12196 -0.133635 0)
(7.01666 0.091617 2.78451e-17)
(6.56414 -0.0500845 -1.98125e-17)
(4.55656 -0.515637 -9.06033e-18)
(7.35621 -0.000860615 0)
(7.61286 -0.0295644 0)
(7.26633 -0.105667 4.37011e-18)
(3.70206 -0.852308 1.82246e-17)
(7.20311 -0.196944 0)
(7.89313 -0.240036 -1.90853e-17)
(4.57685 -0.110244 -5.17016e-17)
(3.37216 -0.723174 0)
(7.12494 0.122596 -4.33261e-17)
(1.65202 -0.368656 0)
(6.99612 0.0138425 -7.52628e-17)
(7.00708 0.0126451 9.97356e-17)
(7.47342 0.0541469 2.72403e-18)
(3.42016 -0.558362 0)
(7.01208 0.0361244 4.95362e-17)
(6.94289 0.0719293 1.10821e-16)
(7.66792 0.0168727 0)
(7.76245 0.0204399 -3.43833e-18)
(7.36865 -0.11406 -4.22167e-18)
(8.13094 -0.11514 0)
(3.84901 -0.649069 1.48233e-17)
(3.7342 0.0310601 -3.71082e-17)
(7.12615 0.12868 -4.89184e-17)
(6.98654 -0.329686 0)
(7.41264 -0.211496 0)
(1.51721 -0.213634 5.30427e-17)
(7.26028 -0.0762687 2.91161e-18)
(7.1515 -0.111289 0)
(7.31488 -0.11653 -2.9227e-18)
(6.97533 0.106964 -2.79794e-17)
(7.16414 0.112636 0)
(7.14597 -0.221645 0)
(6.77345 -0.0810587 0)
(6.65899 -0.317759 4.06922e-17)
(7.00359 0.00594332 0)
(6.86868 -0.305131 2.59763e-17)
(7.3314 -0.160257 4.06513e-17)
(6.78699 0.190445 0)
(7.03765 -0.0250508 1.31122e-17)
(7.06037 -0.190464 -6.13069e-17)
(7.81683 -0.267948 4.35019e-18)
(7.96667 -0.0365511 1.50533e-17)
(6.87987 -0.220712 -4.19242e-18)
(6.99059 0.13341 0)
(6.77582 0.161575 1.31082e-17)
(6.95216 0.115433 -1.47708e-17)
(6.97547 -0.102949 4.04579e-17)
(8.14341 -0.114824 0)
(6.87439 -0.0837068 0)
(7.47838 -0.0866993 0)
(7.65064 0.235411 0)
(7.35713 -0.107527 5.58754e-18)
(7.54313 -0.142253 -1.48254e-17)
(7.54384 -0.128625 3.10874e-17)
(7.40434 -0.112595 0)
(7.29027 -0.019776 2.47692e-17)
(7.70717 0.138715 -1.81911e-17)
(7.74624 -0.224688 -9.32252e-18)
(7.98866 -0.181692 -1.01846e-17)
(8.01382 -0.206907 1.00534e-18)
(7.76325 -0.174221 1.89126e-17)
(7.49334 0.173667 5.48571e-17)
(7.81467 0.116058 -4.62121e-17)
(7.75201 0.205202 5.0476e-17)
(7.64385 0.122611 0)
(4.33111 -0.132493 -2.38685e-17)
(3.96999 0.00469731 0)
(7.91698 -0.142828 -1.29214e-17)
(7.83643 -0.220263 2.1966e-17)
(7.8993 -0.162961 0)
(7.9413 -0.185355 -6.76623e-18)
(7.82826 -0.205533 0)
(7.88087 -0.120891 0)
(7.91534 -0.177266 0)
(7.87437 -0.150824 -2.26334e-17)
(7.04741 0.0220915 3.44667e-17)
(6.96547 -0.0521711 -3.49579e-17)
(7.5555 0.187394 -8.74871e-17)
(1.08531 -0.0665417 -1.1796e-16)
(1.03513 -0.0085314 1.10196e-20)
(4.92422 -0.0751484 0)
(4.72318 -0.00689845 0)
(7.00803 0.0418486 -4.28673e-17)
(7.9498 0.200138 5.1901e-17)
(7.35435 0.0476672 -1.52759e-16)
(6.98079 0.102643 0)
(6.9738 0.0739992 0)
(6.85645 -0.0569433 -1.95976e-17)
(7.01796 -0.0579478 0)
(7.03199 -0.183217 7.73826e-18)
(6.83792 -0.264627 -6.80526e-17)
(5.16426 -0.0323183 6.95812e-17)
(7.07359 0.137625 -3.93274e-17)
(7.2643 -0.198931 -6.94833e-18)
(7.00601 -0.283334 -1.5397e-17)
(6.3328 -0.365197 -3.16192e-18)
(6.32854 -0.2742 3.93346e-17)
(6.445 -0.208967 7.44753e-18)
(7.17253 -0.101479 9.13119e-18)
(7.28391 -0.128514 0)
(7.06524 -0.0229691 -6.38287e-17)
(6.98563 -0.000655204 3.8581e-17)
(7.31266 -0.239272 -3.99431e-18)
(6.98686 0.104573 3.0433e-17)
(7.3877 -0.171002 0)
(6.57154 -0.077456 2.56492e-17)
(6.4386 -0.129455 -7.09029e-18)
(7.25927 0.157898 6.6543e-18)
(7.36072 0.126262 -2.59656e-18)
(7.04196 0.151436 0)
(6.84896 0.177204 0)
(7.37493 0.0539853 2.79704e-17)
(7.61641 -0.0181454 -9.35976e-18)
(7.4686 -0.129467 0)
(6.7769 0.028314 0)
(7.60303 -0.0352241 0)
(7.53179 0.0585145 3.53744e-17)
(7.16931 -0.0119495 -3.60781e-17)
(7.37173 0.0690945 -1.00847e-16)
(6.58392 -0.295581 0)
(7.42505 -0.0724405 0)
(7.1996 -0.107341 0)
(7.33459 -0.0394543 0)
(7.8638 -0.118572 0)
(7.70749 -0.118059 0)
(7.89043 0.0665345 0)
(8.09432 -0.0792305 0)
(4.75747 -0.0771187 0)
(7.06007 -0.0946849 0)
(3.92247 0.897531 -3.20034e-19)
(6.29127 2.43162 -6.14216e-19)
(3.67303 -0.0905837 1.67523e-18)
(6.64483 2.50665 0)
(2.80822 -1.56692 -1.69632e-20)
(2.72829 -1.5404 1.42333e-17)
(7.28863 -4.20256 6.4234e-18)
(6.7942 0.311444 0)
(6.72062 2.17754 0)
(4.21056 -0.899409 -2.0809e-17)
(2.66995 -1.61186 -1.54718e-20)
(3.77375 -0.799477 2.67811e-18)
(3.07636 -0.585799 0)
(2.43964 -5.11312 6.15898e-18)
(7.63816 -1.32779 0)
(5.33582 -4.26014 -8.29533e-20)
(3.66557 -0.818575 3.01913e-18)
(4.0277 -0.226694 2.34011e-21)
(6.05267 -3.93632 -2.28804e-18)
(6.15592 -3.9482 -2.12957e-18)
(4.00287 -0.0127074 5.62261e-19)
(3.94356 0.00913721 -6.99119e-19)
(6.73112 0.229291 -8.29536e-17)
(3.91808 -0.110199 0)
(5.29703 -3.68565 -2.8385e-18)
(5.52638 -3.54031 0)
(1.63313 -0.890764 0)
(3.86208 0.644091 -1.4743e-18)
(5.65311 -3.96739 4.24702e-18)
(6.02732 -3.26309 -2.01347e-18)
(6.43793 1.81592 0)
(3.78105 -1.49722 2.57758e-18)
(3.6715 -0.527699 0)
(5.88199 -1.31357 3.35373e-18)
(7.01499 -2.31846 -1.30723e-17)
(6.2932 -3.48011 -3.93869e-18)
(6.39756 2.80214 2.26146e-20)
(6.36617 2.21579 1.9073e-18)
(6.34191 2.30371 -2.49745e-18)
(2.64764 -1.20717 0)
(2.70025 -1.41349 7.52091e-20)
(2.97699 -1.52426 -1.83293e-17)
(2.87844 -1.47132 -2.59258e-20)
(6.40143 -2.0334 -6.93812e-18)
(6.02589 -1.87726 5.63961e-18)
(6.68931 -1.77029 0)
(6.21691 2.39601 2.61083e-18)
(5.52015 -4.13009 -1.93328e-18)
(1.78282 0.760511 -5.86217e-17)
(6.15892 2.79404 0)
(3.52177 -1.32726 0)
(7.29227 -3.63549 1.3861e-17)
(6.52733 1.92949 2.36624e-18)
(6.57552 1.97668 5.55087e-19)
(3.51205 -1.24181 0)
(6.49628 2.41314 -7.8509e-20)
(6.46831 2.42909 9.81844e-20)
(3.01866 -1.43765 9.25386e-18)
(3.41381 -1.92554 4.12303e-19)
(3.29505 -2.08655 3.3451e-18)
(3.97028 -1.10182 4.22759e-17)
(3.75704 -1.06422 0)
(3.09566 -0.72441 0)
(3.20635 -0.79439 5.06117e-19)
(5.498 -3.83447 2.03073e-18)
(3.97504 -0.262649 0)
(3.972 -0.711866 -6.46197e-19)
(6.89254 -0.417269 1.96735e-17)
(6.43993 2.4145 0)
(6.58573 0.190394 5.57864e-17)
(6.34379 2.10143 0)
(6.38532 2.14898 0)
(5.87809 -4.30021 0)
(0.948442 -0.469867 8.49517e-17)
(6.87538 0.305579 -8.00143e-17)
(2.92668 -0.407154 -9.78743e-18)
(3.98032 -0.427558 2.28319e-18)
(4.01451 -0.295015 -1.08655e-18)
(5.50119 -3.9691 -1.21199e-18)
(6.06994 -4.29077 -9.27862e-19)
(6.07855 -4.25624 -2.86956e-18)
(6.25509 2.30535 3.78452e-18)
(3.97496 -0.498739 -3.66572e-18)
(3.96875 -0.637017 1.35913e-18)
(5.68128 -3.83015 -1.91662e-18)
(6.65661 -3.23389 0)
(3.7985 -0.972443 0)
(3.85699 -0.919426 0)
(3.8113 -1.05575 0)
(3.13817 0.433748 -1.72787e-17)
(3.83618 -1.76756 9.03706e-18)
(4.2067 -1.35703 0)
(6.14108 0.107497 -1.66557e-17)
(6.30959 2.29315 -6.18736e-19)
(6.28126 2.2312 -2.19548e-18)
(6.32179 2.2367 -2.49151e-18)
(6.27152 2.28777 -4.81467e-18)
(2.96257 -1.67178 -2.05824e-17)
(5.39647 -4.0455 8.40371e-19)
(5.44317 -4.07188 -1.79269e-18)
(6.13499 -4.26124 4.41945e-18)
(6.23774 -3.67803 0)
(3.86107 -0.651974 2.49564e-18)
(7.43736 -3.31476 -4.34193e-18)
(7.34835 -3.47762 -9.4213e-19)
(7.24569 -2.95031 3.55967e-18)
(3.39391 0.108333 0)
(3.25677 0.345428 -1.71848e-17)
(3.23788 0.139633 0)
(6.2305 -4.34418 -1.60095e-18)
(6.45901 2.35302 1.06317e-19)
(3.06387 -1.93965 -1.37247e-17)
(2.98522 -1.74654 1.82416e-17)
(3.09891 -1.76042 2.20938e-17)
(2.91941 -1.93161 6.44408e-18)
(6.39281 2.36117 1.16495e-18)
(6.43941 2.34037 -1.6959e-18)
(6.42227 2.31834 3.63275e-19)
(6.41863 2.37331 4.31324e-19)
(3.85562 0.711455 2.86589e-18)
(3.81778 0.856221 -1.64177e-18)
(6.81433 0.278056 -2.62973e-19)
(6.48278 -0.833684 -3.01467e-17)
(2.8945 -0.740895 -1.99157e-17)
(2.87021 -0.978606 0)
(7.07363 -3.16893 -5.19458e-18)
(7.52288 -0.444756 -3.92388e-17)
(2.85242 -1.35331 5.7886e-18)
(5.84129 -0.864518 -2.03872e-18)
(7.12754 -0.24063 8.27787e-18)
(2.86312 -0.595863 0)
(2.96407 -0.583797 1.88313e-17)
(2.92999 -0.511826 6.78342e-20)
(2.90563 -0.636083 -5.42872e-18)
(3.6127 -0.0897267 3.16822e-19)
(3.60934 -0.267082 0)
(3.40304 -0.0244442 -6.76086e-18)
(6.50437 2.38718 0)
(6.48687 2.36545 0)
(6.53596 2.37032 1.95153e-19)
(3.31213 -0.456353 0)
(3.14619 -0.467717 3.26057e-17)
(3.09635 -0.11924 0)
(3.11202 -0.341171 -3.52264e-17)
(3.17264 -0.192155 0)
(3.42892 0.573235 -6.41099e-18)
(3.66658 0.264256 3.71205e-17)
(6.20946 0.157816 -6.01888e-17)
(6.72949 2.08459 -1.19951e-18)
(6.33994 2.33145 9.13707e-19)
(6.36918 2.35678 -1.90132e-18)
(6.71417 -0.622272 5.9754e-18)
(6.76183 -0.401757 0)
(1.10926 0.40786 0)
(2.69171 -0.552517 -8.25083e-18)
(6.8343 -3.24781 0)
(6.4396 -3.37357 -1.19239e-17)
(7.12379 -0.259233 -1.92713e-17)
(7.14771 -0.244586 1.52087e-17)
(7.0831 -0.295512 0)
(6.22723 2.44435 1.35368e-18)
(6.27625 2.50574 6.62289e-19)
(6.62841 -3.78917 4.4391e-19)
(6.0994 -4.3083 0)
(6.17654 -4.32508 2.1549e-18)
(6.0862 -4.34072 2.2842e-18)
(5.26528 0.218019 9.94565e-17)
(6.52563 -0.488751 -5.42974e-17)
(6.54461 -0.606911 0)
(6.6128 -0.414839 -2.38178e-17)
(5.79406 -3.70697 0)
(5.98675 -3.75583 4.64799e-18)
(5.88555 -3.8058 -1.90734e-20)
(5.85574 -3.70052 -4.32233e-18)
(4.24462 -0.368567 0)
(3.99948 -0.13779 -2.11248e-18)
(3.9227 -0.3415 -3.24528e-17)
(4.25772 -0.225263 0)
(6.11313 -3.81628 2.22468e-18)
(6.18874 -3.91147 1.77597e-19)
(6.2435 -3.78516 -1.55898e-18)
(3.90814 0.409122 2.41758e-18)
(3.846 0.301962 0)
(5.92807 -3.34751 0)
(5.6759 -3.47844 -4.21358e-18)
(3.96008 0.401913 -5.38581e-19)
(3.66807 0.766558 -8.22959e-18)
(4.31758 -0.556113 -5.31133e-19)
(4.06829 -0.665668 1.78704e-17)
(4.21791 -0.686942 -1.1397e-17)
(4.24002 -0.454764 1.03192e-17)
(3.01952 -2.63537 -2.3316e-18)
(6.68262 0.249649 1.00744e-17)
(6.67139 0.220915 0)
(6.88285 0.139321 0)
(6.81696 0.171636 5.71531e-18)
(3.83222 1.1161 0)
(3.8843 0.981436 0)
(2.90918 -0.196442 -2.33943e-17)
(2.89973 -0.0788502 1.57906e-20)
(2.82421 -0.221968 1.0775e-17)
(3.39909 -1.26625 0)
(6.66156 -1.65183 0)
(3.70998 1.57241 -9.48848e-20)
(3.82956 1.43671 -1.96594e-18)
(3.78363 0.931269 -1.57638e-18)
(5.24038 -3.78968 0)
(3.17143 -1.20033 9.09501e-18)
(3.25265 -1.06702 1.79016e-17)
(3.03698 -1.15872 0)
(3.58053 -0.524361 0)
(3.83114 -0.353725 4.20275e-17)
(3.66489 -0.318842 -5.15985e-18)
(3.80844 -0.51925 -3.05409e-17)
(3.12493 -1.46681 1.79501e-17)
(3.28976 -1.35085 0)
(3.19246 -1.30112 -1.88414e-17)
(3.25446 -1.47877 0)
(7.6206 -0.39139 1.39718e-17)
(3.70484 -1.42595 0)
(3.50078 -1.29292 0)
(3.67371 -1.22894 0)
(3.51148 -1.44752 1.49745e-17)
(6.69169 -2.49353 0)
(6.96776 -2.38037 -6.95469e-18)
(3.69982 -1.17284 -7.70414e-19)
(3.79247 -1.09931 0)
(3.78256 -1.17751 6.90723e-19)
(3.7143 -1.10373 0)
(6.91321 0.0750093 3.51744e-19)
(6.87821 0.00967285 0)
(6.52816 0.308628 3.29375e-17)
(6.54641 -3.71614 1.47755e-19)
(6.38588 -3.54872 3.57819e-18)
(6.59521 -3.62322 3.21822e-18)
(6.33863 -3.65626 3.93651e-18)
(6.85195 2.05769 0)
(7.24682 0.441972 -2.61906e-17)
(4.54287 -1.55692 1.84853e-17)
(4.63108 -1.26328 -3.41037e-17)
(7.01395 -0.344754 1.61303e-17)
(7.10643 -0.273495 -1.10578e-18)
(7.03206 -0.318624 -1.05936e-17)
(6.85061 1.35337 2.63699e-18)
(4.03707 -0.189636 -3.51525e-17)
(2.09144 -0.192826 0)
(6.11126 -0.481446 -2.30113e-17)
(6.22848 -0.467222 5.28782e-18)
(6.39987 2.87248 -1.47283e-19)
(5.84172 -3.92161 0)
(5.8808 -3.8591 -2.6834e-20)
(5.95694 -3.89431 2.68325e-18)
(5.79893 -3.85853 2.49193e-18)
(4.30879 -1.24398 0)
(4.52751 -0.930745 -5.89422e-18)
(4.33457 -0.98162 0)
(4.53393 -1.17415 3.75002e-17)
(6.9056 0.11173 0)
(6.91482 0.0757602 1.385e-17)
(6.90358 0.0934668 0)
(7.00328 0.0721552 5.20078e-19)
(7.00007 0.0909803 -1.74452e-17)
(7.57789 -0.18092 0)
(7.2442 -0.222543 -4.45873e-18)
(7.37927 -0.222093 4.74959e-18)
(7.42005 -0.1788 0)
(6.647 0.177298 0)
(6.75931 0.0873651 -6.97118e-17)
(6.72618 0.158265 5.01142e-18)
(6.66255 0.128119 4.30567e-17)
(5.62567 -3.93046 -4.537e-18)
(5.56202 -3.85293 0)
(5.54918 -3.93686 0)
(5.64245 -3.87301 0)
(6.25345 2.38353 1.3716e-18)
(6.28412 2.40702 -7.50903e-19)
(6.27362 2.34652 1.13101e-18)
(2.86636 -1.05949 0)
(2.77373 -1.16331 7.04482e-18)
(2.78131 -1.08219 -7.42298e-18)
(2.87166 -1.15935 -5.69482e-18)
(6.52298 0.203875 -9.26509e-18)
(6.40517 0.232254 3.61151e-18)
(6.4724 0.176893 9.25692e-17)
(2.3237 -0.307653 -2.10956e-17)
(2.09959 -0.0163873 2.37061e-17)
(6.94299 0.146305 0)
(2.15168 -0.1973 -9.84522e-19)
(5.41707 0.0950453 -1.19206e-16)
(6.99567 0.0206705 4.98358e-17)
(7.01972 0.0752737 2.13025e-17)
(2.23818 -1.11471 -6.82181e-18)
(2.47104 -1.17102 1.25903e-17)
(7.01124 0.115737 6.19091e-17)
(7.01017 0.083742 6.72682e-17)
(7.00882 0.0907814 -2.21542e-17)
(6.95841 0.201637 8.6423e-17)
(7.10565 -2.25914 1.3767e-17)
(7.00253 0.240825 0)
(5.98411 -0.0840868 1.59484e-17)
(1.57816 -0.265751 -2.96155e-20)
(2.12476 -0.32447 0)
(6.78037 0.230839 -5.80571e-17)
(3.58398 -1.19358 0)
(7.43321 0.0167585 -4.30209e-17)
(6.99945 0.142225 4.60467e-17)
(6.8089 -0.0124611 0)
(7.8663 -0.403229 0)
(7.33463 0.336447 0)
(7.31904 0.409217 2.95208e-17)
(1.72788 0.513861 1.95062e-17)
(7.73569 -0.282261 7.59314e-17)
(7.67388 -0.342929 0)
(7.13683 0.175039 -3.35851e-18)
(6.853 0.275631 0)
(7.13499 -2.42689 7.16236e-18)
(6.02809 -0.0703107 1.38949e-17)
(7.18851 -0.165523 -1.99843e-18)
(7.13172 -0.213961 2.54805e-18)
(7.1715 -0.192783 3.77506e-19)
(7.5797 -0.226004 0)
(6.67181 -0.448222 -5.97455e-18)
(6.65089 -0.562075 8.24444e-18)
(8.10105 -0.219082 3.61036e-17)
(8.15343 -0.134299 -3.66977e-17)
(8.07079 -0.129243 7.98101e-17)
(6.9463 -0.117367 2.77249e-18)
(6.84327 -0.0945277 2.61177e-18)
(6.9755 0.178825 2.56577e-17)
(6.9707 0.153458 2.52081e-17)
(7.00057 0.0231371 2.74667e-17)
(7.00306 0.0366264 5.9479e-17)
(6.43636 -0.375276 0)
(3.19726 0.506152 0)
(6.81459 -0.452769 0)
(6.7936 -0.57207 0)
(7.15813 -0.162847 -5.06792e-20)
(6.98324 0.254587 -2.64568e-17)
(6.23701 -0.0814708 -8.54688e-18)
(7.00309 0.169637 -4.71869e-17)
(6.9928 0.20943 0)
(6.99207 0.191142 1.00778e-18)
(2.10012 0.317968 0)
(6.93705 0.113837 -1.35675e-17)
(6.94672 0.102779 1.34011e-17)
(7.2997 -3.26848 6.35395e-18)
(7.28015 -2.96061 0)
(7.2969 -2.84013 2.68485e-18)
(7.413 -0.364689 -6.7332e-17)
(7.16939 -0.0532529 0)
(8.27689 -0.022192 0)
(6.58027 -0.0578509 -2.65688e-18)
(6.5336 -0.0497865 -1.95092e-17)
(6.84358 -0.0542414 2.74211e-17)
(4.6628 -0.279357 6.32681e-17)
(4.87364 -0.27696 0)
(7.51186 -0.384486 -7.73457e-17)
(7.45652 -0.35829 6.11415e-17)
(8.06565 0.0346958 -3.21501e-17)
(8.17643 -0.116049 0)
(6.03585 -0.169652 0)
(7.07347 -0.00277327 0)
(7.17571 0.38729 9.32935e-18)
(7.15467 0.337451 0)
(8.07292 -0.134421 0)
(8.27577 -0.100287 -2.18827e-17)
(1.70075 0.544445 0)
(7.13447 -0.246232 -1.10013e-18)
(7.26062 0.0105012 0)
(4.63577 -0.755914 -3.04047e-17)
(7.22173 0.121636 -3.1565e-19)
(7.2318 0.0799088 1.04396e-17)
(1.00791 -0.0850919 -8.14382e-17)
(3.7489 0.410314 1.52033e-17)
(3.59858 0.59341 -9.48628e-18)
(6.79975 0.208977 5.12663e-17)
(6.99745 0.0532496 -2.5469e-17)
(6.99274 0.0715425 -2.67143e-17)
(5.43767 -1.00929 -2.90145e-17)
(6.47375 1.99291 -2.15421e-18)
(6.16646 -0.00092276 -3.46865e-17)
(6.04228 -0.0557607 0)
(2.73151 -1.22822 1.23949e-17)
(2.75885 -1.32605 -1.25601e-17)
(6.66837 0.0747364 -4.32888e-19)
(6.56159 -0.00669449 7.31162e-17)
(6.65946 0.00786915 0)
(6.99965 0.0924486 5.49028e-17)
(7.00272 0.124386 1.93713e-18)
(2.54008 0.669254 0)
(6.96541 0.245605 -5.49312e-17)
(6.61238 0.235758 -5.45271e-17)
(6.58007 0.305926 -3.25376e-17)
(6.86661 0.2304 1.00429e-16)
(6.90447 0.231515 -7.22874e-17)
(6.92131 0.196022 -2.91093e-17)
(7.29896 0.055649 -5.5864e-17)
(6.28331 -0.0266263 2.36379e-17)
(6.39795 0.0356927 -5.82995e-17)
(6.18473 -0.188433 -1.34203e-17)
(6.29799 -0.10604 -8.23251e-17)
(7.52155 0.00773315 0)
(7.67124 0.0745169 -2.72291e-18)
(7.17485 -0.142756 -1.90413e-17)
(7.8723 -0.00469339 4.77633e-17)
(6.56511 2.06107 1.4032e-18)
(6.98003 0.136147 4.27432e-18)
(7.06496 -0.318842 0)
(7.10195 -0.269261 5.67431e-18)
(4.44212 -0.432347 0)
(4.72804 -0.479589 6.37771e-17)
(7.46562 0.185235 -4.88422e-17)
(7.82137 0.154917 -2.04859e-17)
(7.52183 0.115945 -7.39724e-18)
(7.43558 0.137948 5.37606e-18)
(5.67925 -0.136461 0)
(5.48523 -0.172111 0)
(3.474 -1.54435 -2.07934e-17)
(3.27353 -1.55808 0)
(3.19494 -1.72899 -1.76593e-17)
(2.83429 -1.69139 -1.55063e-17)
(7.01659 0.0531605 -8.09716e-18)
(6.73671 0.196905 0)
(6.81605 0.185623 0)
(7.53524 0.0258258 0)
(7.86832 0.0317978 -6.29765e-17)
(4.08315 0.202657 -2.82321e-17)
(4.2762 0.15781 2.38516e-17)
(8.34198 0.0829539 -1.5429e-17)
(8.20947 0.146892 -1.84681e-16)
(8.06722 0.0440171 -6.86184e-17)
(7.14528 0.0770986 0)
(7.70716 0.234397 0)
(7.03899 0.0760945 0)
(7.42513 -0.0543208 0)
(7.03319 0.184872 -4.70162e-16)
(4.91352 0.0307366 5.29624e-16)
(7.46586 0.172825 8.75693e-17)
(7.27239 -3.93418 0)
(7.36855 -3.78779 0)
(6.98851 0.0247093 -2.61317e-17)
(6.95246 0.0463298 -6.09969e-17)
(7.02194 0.0414151 2.01172e-17)
(6.9373 0.0601269 8.88062e-17)
(7.9083 -0.252825 6.1635e-17)
(5.03084 -0.0560187 -4.43933e-17)
(5.19578 -0.117943 -5.68211e-17)
(5.36127 -0.0279079 8.91509e-17)
(6.89524 0.121444 0)
(6.88352 0.144572 0)
(6.85449 0.178557 0)
(6.87547 0.170352 -2.96927e-17)
(6.83447 0.210805 0)
(7.00132 0.0616677 4.08684e-17)
(7.32195 -0.0762981 5.51264e-17)
(7.03551 -0.13048 -4.69221e-17)
(7.57504 -0.354861 1.04467e-16)
(7.66682 -0.290626 -6.96753e-17)
(7.64656 -0.270865 -6.44286e-17)
(7.62631 -0.256156 0)
(7.45811 -0.27043 2.45062e-17)
(7.52921 -0.294462 -2.4435e-17)
(4.77937 -0.0791759 -1.79062e-17)
(6.91936 -0.0354579 -7.51296e-18)
(7.83109 -0.228486 2.21026e-17)
(5.0152 -0.427677 0)
(5.18649 -0.371081 -2.52567e-17)
(5.3887 -0.374528 -4.35027e-17)
(3.16987 0.455423 8.98209e-18)
(3.18845 0.513676 7.90182e-18)
(6.40495 0.0945605 2.87541e-17)
(6.31312 0.123371 0)
(3.47955 -0.892019 -3.14773e-18)
(3.39507 -1.06059 0)
(7.69584 -0.100759 -1.12979e-17)
(7.84998 0.0301621 0)
(7.77635 0.109453 2.29939e-18)
(3.58643 0.8313 3.93676e-18)
(3.54244 0.823115 3.81839e-20)
(5.3152 -3.12274 3.78743e-19)
(5.33467 -3.20639 -3.4519e-19)
(2.63934 -0.917787 0)
(3.86539 1.84338 -1.20273e-18)
(7.93846 0.205693 -6.88845e-20)
(5.88525 1.04848 0)
(6.51033 0.948348 8.78681e-20)
(6.1903 0.888848 -2.6467e-19)
(2.53906 0.428305 0)
(5.98066 -2.09404 -2.96119e-19)
(9.49928 1.12092 -1.02514e-18)
(8.01785 0.435948 2.89645e-19)
(9.00247 -0.298919 2.32649e-18)
(6.52004 3.23168 -8.05567e-20)
(2.65287 0.448597 4.16246e-18)
(5.34537 -4.27625 9.32929e-19)
(6.72003 -4.59635 0)
(3.55457 -0.754976 0)
(9.42676 1.10357 0)
(5.28885 -4.19142 0)
(5.34174 -4.2187 0)
(6.06439 2.07425 5.67961e-20)
(6.06829 2.09463 0)
(6.45486 0.649896 1.67881e-19)
(7.11148 0.843848 2.13284e-20)
(7.10661 0.883979 -2.39113e-20)
(5.92091 0.977782 1.75419e-19)
(7.37489 -1.0973 1.34072e-19)
(7.40233 -1.18286 6.77026e-20)
(5.65274 -4.46264 9.10415e-19)
(6.22972 0.875943 -1.50393e-20)
(6.29625 0.841323 0)
(7.55826 1.02631 1.63842e-19)
(7.45968 0.775979 -8.04985e-21)
(7.46209 0.811435 -2.2714e-19)
(7.16044 0.887247 0)
(6.51822 -1.99344 0)
(6.51696 -1.94015 -4.53538e-22)
(3.38243 -2.19688 1.90285e-18)
(6.36732 1.03887 1.19221e-19)
(6.36263 1.00976 -3.14389e-20)
(5.17045 -3.83112 0)
(1.54182 -2.05602 3.42766e-17)
(3.74693 1.70246 8.33481e-19)
(3.801 1.73353 -1.49844e-20)
(2.55981 0.0201683 4.43433e-18)
(4.36019 -1.76462 -1.80137e-17)
(6.01309 2.533 5.39423e-19)
(8.67527 0.823035 3.8766e-19)
(6.19153 -4.45051 -1.85671e-19)
(2.35692 -0.961288 -1.58591e-18)
(6.63329 2.21896 0)
(6.73549 2.43145 -3.16949e-20)
(6.11496 -2.25114 1.28289e-19)
(3.31922 1.35112 -1.80438e-20)
(6.68619 -4.55452 -2.52409e-19)
(6.71698 -4.5552 6.74804e-19)
(6.09519 -1.4169 0)
(7.19974 -1.34685 0)
(7.00208 -1.59151 -1.32284e-19)
(6.92298 2.87005 -2.23218e-19)
(7.24617 0.630977 -9.66217e-20)
(7.27446 -1.46784 8.5808e-21)
(6.29506 2.27111 0)
(4.77008 0.866708 0)
(8.42084 0.274298 0)
(6.01535 -2.21632 -8.41441e-20)
(2.72861 -3.26235 -1.8935e-20)
(2.84353 -3.06229 1.28382e-18)
(6.82625 -0.805473 0)
(6.83986 -0.90847 8.79882e-18)
(5.91467 -4.42371 -8.77513e-19)
(6.87993 2.67676 -1.04143e-19)
(3.15574 -1.8055 1.22687e-18)
(7.89296 0.728735 -4.99593e-19)
(5.65955 -4.52812 0)
(6.46174 3.27503 0)
(6.39965 3.23664 -3.32179e-20)
(6.0599 2.58327 0)
(4.9831 -3.21743 -4.38307e-18)
(6.5561 3.6608 0)
(6.70502 2.75842 3.33626e-20)
(6.62063 1.00487 0)
(4.02016 0.918295 5.84046e-19)
(3.99583 0.877933 2.86972e-19)
(6.12179 0.684552 5.03841e-19)
(7.80214 0.764029 0)
(7.79044 0.805316 0)
(7.87647 0.773545 4.92724e-19)
(5.57389 -2.72041 8.98155e-18)
(6.92781 1.08376 2.67239e-21)
(8.19469 -0.471013 0)
(8.17111 -0.388605 -1.03425e-19)
(2.32717 -2.01092 5.4013e-18)
(6.85325 0.860318 -1.82407e-20)
(6.87484 0.886952 0)
(2.71476 -0.143428 6.49745e-18)
(2.77898 0.0228831 0)
(8.44347 -0.189714 -7.98123e-19)
(8.43334 -0.137796 -5.25653e-19)
(6.21034 3.2743 -8.31083e-21)
(6.88306 -4.61261 2.97773e-18)
(3.68296 -0.886102 1.62009e-18)
(6.77505 2.31676 7.40028e-21)
(6.72105 2.64042 -1.25942e-19)
(6.337 2.42165 1.78855e-18)
(7.78055 -0.724313 -6.63885e-21)
(2.66749 -4.4668 6.3685e-18)
(7.02607 0.895162 -8.3254e-21)
(7.02555 0.860913 4.83653e-21)
(7.56961 3.15588 3.68747e-19)
(7.20701 -1.48971 0)
(7.05868 -1.54932 7.49445e-20)
(5.51689 -4.53347 1.33049e-18)
(1.61499 -1.37571 -6.80248e-18)
(4.08721 1.42651 2.21728e-18)
(8.24701 -0.78312 9.07133e-19)
(5.69003 -2.5519 -1.90507e-19)
(5.70166 -2.62037 4.70899e-19)
(3.91384 1.54604 -9.37672e-19)
(3.84306 1.68697 -1.24647e-18)
(7.30066 -1.40046 -7.62899e-21)
(7.27993 -1.35196 5.94783e-20)
(7.24157 -3.86574 0)
(7.86429 -4.91385 0)
(7.65595 -0.651563 2.61077e-19)
(8.11177 -0.383941 8.08987e-19)
(8.18598 0.935315 0)
(3.52751 0.913155 -3.71925e-18)
(7.39334 0.971046 0)
(7.68569 -3.06678 9.29054e-19)
(2.27552 -2.01549 2.09356e-17)
(7.61002 -4.17657 0)
(6.44183 2.22705 -7.20817e-20)
(5.26828 -4.22279 -3.4922e-19)
(5.27545 -4.24097 1.45523e-18)
(6.20633 2.32276 0)
(6.24209 2.31466 -4.2133e-19)
(6.75695 2.23496 0)
(4.41109 -0.0581868 0)
(6.39467 0.592573 -1.03107e-19)
(9.07341 -2.67041 1.51023e-18)
(6.14687 -2.43477 0)
(6.70858 -2.77856 0)
(6.5745 0.825969 -9.59468e-20)
(6.92448 -4.24985 1.11741e-19)
(6.34253 -0.852675 1.68786e-17)
(6.87414 -1.10955 2.02173e-20)
(7.55974 -4.8914 -1.99303e-18)
(7.63017 -4.87615 0)
(5.99089 1.25992 0)
(2.17988 -4.09299 1.00119e-17)
(3.2269 0.607962 -1.85512e-18)
(6.7154 3.37744 1.92633e-19)
(6.27257 -1.92226 9.5241e-20)
(6.07753 3.11428 0)
(4.04517 1.28403 8.337e-19)
(4.12224 1.2019 1.5868e-18)
(7.20142 -0.660473 -3.31931e-19)
(5.80782 1.06547 3.2366e-19)
(6.94692 -1.37161 -8.79819e-21)
(6.95049 -1.44366 1.29292e-19)
(7.72998 1.07033 -1.94546e-19)
(6.49379 0.615757 -1.81527e-19)
(6.87459 0.799829 0)
(6.96214 0.793602 1.32855e-20)
(5.25324 -3.24012 0)
(5.07998 -3.29753 0)
(3.75008 -0.732842 0)
(2.70658 0.56188 -3.4099e-18)
(2.66788 0.526553 0)
(2.67996 0.672955 0)
(7.37956 -0.174942 9.88888e-20)
(6.85446 2.64054 3.4983e-20)
(7.5746 3.21008 2.10886e-19)
(3.92952 -1.51807 0)
(3.85663 -1.53541 6.63317e-19)
(4.80636 0.838477 0)
(6.60543 2.254 9.05214e-21)
(4.08902 1.6557 0)
(2.56127 -0.914493 4.50498e-18)
(4.65603 -0.0501071 2.1058e-18)
(4.72007 -0.0604499 -9.03916e-20)
(7.88665 0.606462 -4.75172e-19)
(6.80806 0.638024 8.22623e-18)
(6.64776 2.71673 1.9293e-19)
(4.40365 0.0705909 0)
(4.43468 0.0100349 0)
(7.52233 1.43027 -3.74766e-20)
(6.54978 2.25331 0)
(6.31405 -4.45617 0)
(6.32584 -0.435369 -6.91902e-21)
(6.52161 -4.49717 -8.89286e-19)
(6.24959 0.970706 -1.24573e-19)
(6.24095 0.937642 1.88987e-19)
(3.55091 -0.677941 -9.73005e-19)
(6.57016 -1.43145 3.20679e-20)
(6.78717 -4.80343 -4.31216e-19)
(6.61564 2.17017 2.69633e-20)
(6.38953 -4.44774 4.87418e-19)
(7.07121 0.446039 -8.371e-21)
(7.01104 0.448159 -1.48713e-20)
(3.99184 1.63792 -1.7593e-18)
(4.37857 0.780748 0)
(4.37016 0.834996 1.8878e-21)
(5.10779 -4.53283 5.93032e-19)
(6.4913 0.380311 0)
(6.42726 2.11158 1.7431e-19)
(5.69201 -4.47306 0)
(5.69572 -4.50557 9.33348e-19)
(4.20314 0.56961 -2.56111e-19)
(6.71616 0.889395 0)
(6.79072 0.902801 0)
(6.5575 2.10742 1.85118e-20)
(6.72064 2.22262 8.66793e-21)
(6.76688 2.26075 -4.47841e-21)
(4.97945 -5.0316 -3.24773e-19)
(8.09743 0.538548 -3.74769e-19)
(8.18355 0.532676 0)
(9.00817 -2.71144 3.0506e-18)
(7.15711 -1.45855 -9.02098e-20)
(7.15641 -1.38752 -4.13206e-20)
(7.07002 -1.49232 2.03003e-19)
(5.86466 0.501379 8.50827e-20)
(5.86376 0.555842 0)
(6.15834 0.372377 0)
(6.13942 0.329166 0)
(7.38925 -0.639932 0)
(7.42814 -0.610283 0)
(8.53084 1.00181 5.78915e-19)
(5.70052 3.31441 1.69654e-19)
(6.80711 2.87528 2.00043e-19)
(6.85573 2.85568 0)
(7.33791 -4.34111 4.37476e-18)
(5.9991 -0.255753 0)
(7.62318 -4.79641 0)
(4.40767 0.448528 8.36011e-19)
(6.31445 -4.4486 -5.57153e-19)
(6.21783 -4.43242 1.17407e-18)
(7.58111 -4.53611 3.43302e-19)
(6.08676 -1.58054 3.36583e-19)
(6.96615 -4.78223 0)
(6.52381 2.13964 4.17124e-20)
(6.47925 2.10103 0)
(8.11625 -1.72412 -5.28221e-19)
(8.0854 -1.06846 -8.75406e-19)
(6.92326 0.946919 8.54938e-21)
(4.31347 -0.168368 0)
(7.01926 -4.66649 7.31817e-19)
(5.8659 2.69443 0)
(5.79777 2.68123 2.41211e-18)
(6.31944 -4.46454 -1.34897e-19)
(4.57691 0.23822 1.49835e-18)
(8.21446 1.00725 0)
(1.70464 -1.74895 0)
(6.50378 1.6409 0)
(6.4245 1.73678 0)
(6.17256 -1.58252 4.95702e-19)
(6.61694 1.04846 2.75704e-20)
(6.54481 1.04279 -1.00091e-20)
(6.57289 2.52467 7.35138e-20)
(6.53662 2.55001 -1.5638e-20)
(6.75289 0.600923 0)
(6.1802 2.37568 -2.70371e-18)
(8.89873 0.608312 0)
(8.78224 0.600649 1.52587e-18)
(6.11921 0.930818 0)
(6.15455 2.87039 0)
(6.18828 3.0047 3.36198e-20)
(6.86899 -0.96102 1.99329e-21)
(6.63471 2.98984 -8.99299e-20)
(6.6144 3.12874 0)
(6.51971 -1.28048 -2.21505e-19)
(7.87978 -0.847685 2.36694e-19)
(8.00308 -0.747788 6.31566e-19)
(5.98596 2.12154 -2.11185e-19)
(6.04231 2.10603 0)
(7.54761 0.767441 -8.22452e-21)
(8.46797 0.823669 -3.53516e-20)
(8.47366 0.885546 3.28492e-20)
(6.37929 -1.51838 -3.09045e-19)
(6.29713 -1.61474 0)
(2.10271 -1.12649 0)
(5.46153 -4.3199 -1.12422e-18)
(5.39002 -4.32833 1.34343e-18)
(6.88017 -1.6722 -3.4068e-20)
(2.91468 0.499649 0)
(6.86857 2.7196 -7.72166e-21)
(6.83382 2.73098 9.03005e-20)
(5.14681 -4.19544 0)
(4.62479 -3.77048 -3.2726e-18)
(6.4855 -1.50861 -2.41343e-20)
(6.51429 -1.43699 9.47298e-20)
(6.41134 -1.48978 2.73835e-19)
(3.99046 0.499798 2.50454e-18)
(3.91437 0.606085 1.42932e-18)
(6.44532 -4.44848 1.68716e-18)
(7.61887 0.471952 2.60167e-19)
(6.77966 0.53018 -5.53175e-21)
(6.24077 -4.42607 0)
(6.21415 -4.41484 0)
(6.29318 -4.4368 0)
(2.87718 -2.90144 1.1171e-18)
(2.92642 -2.9544 3.13681e-18)
(5.12609 -1.23039 0)
(6.48893 -1.07872 -8.96853e-20)
(8.98997 -0.01596 -2.6344e-19)
(9.02037 -0.0508969 0)
(6.032 -0.934238 -3.84019e-19)
(6.04473 -0.999379 2.48078e-19)
(6.83268 -4.61455 -1.97936e-18)
(6.77864 -4.58076 1.72096e-18)
(6.86174 -4.6451 0)
(4.20974 0.986642 9.89022e-19)
(4.19252 1.09178 7.52174e-19)
(2.36455 -2.00495 0)
(6.475 -4.49097 -1.1246e-18)
(6.84323 3.0634 -4.45022e-20)
(5.99646 2.25261 4.04201e-18)
(5.52929 -4.45662 1.02567e-18)
(5.5364 -4.48756 0)
(2.63976 -3.29707 -8.15998e-18)
(8.28526 -0.569428 9.14215e-19)
(8.00177 0.208537 6.58361e-19)
(8.1298 0.179633 1.98687e-19)
(6.30852 0.903662 -2.80434e-19)
(2.59831 -0.117519 -6.42508e-18)
(6.30951 3.06811 0)
(6.39919 3.06881 0)
(6.69092 -0.714426 -1.11535e-17)
(6.74684 -0.808386 0)
(7.18091 -3.62455 0)
(8.31578 -0.274764 -8.7181e-19)
(8.291 -0.206075 1.29806e-18)
(8.02316 -0.986784 0)