/*--------------------------------*- C++ -*----------------------------------*\
  =========                 |
  \\      /  F ield         | OpenFOAM: The Open Source CFD Toolbox
   \\    /   O peration     | Website:  https://openfoam.org
    \\  /    A nd           | Version:  6
     \\/     M anipulation  |
\*---------------------------------------------------------------------------*/
FoamFile
{
    version     2.0;
    format      ascii;
    class       volScalarField;
    location    "400";
    object      nuTilda;
}
// * * * * * * * * * * * * * * * * * * * * * * * * * * * * * * * * * * * * * //

dimensions      [0 2 -1 0 0 0 0];

internalField   nonuniform List<scalar> 
29884
(
0.276951
0.226487
0.122061
0.155995
0.15636
0.129647
0.193514
0.264443
0.213778
0.141145
0.153475
0.141699
0.15303
0.288525
0.280886
0.192654
0.288003
0.266653
0.280194
0.173345
0.27809
0.118572
0.142525
0.140649
0.144303
0.15503
0.193406
0.218869
0.150188
0.25459
0.148665
0.162969
0.194955
0.185295
0.14375
0.147361
0.249925
0.166528
0.179351
0.186925
0.231845
0.184853
0.176313
0.200849
0.183851
0.165972
0.175364
0.175822
0.136641
0.170878
0.167687
0.174265
0.19352
0.275331
0.263861
0.267959
0.187514
0.28416
0.262445
0.266688
0.198422
0.190384
0.135275
0.171053
0.166634
0.172805
0.280348
0.20331
0.302738
0.211405
0.141248
0.149598
0.143864
0.10938
0.318653
0.281283
0.233796
0.23105
0.225734
0.211625
0.179857
0.197658
0.116566
0.1423
0.123736
0.0966195
0.148766
0.155496
0.138237
0.0711529
0.144109
0.156722
0.0999827
0.0627335
0.151702
0.000579485
0.139825
0.139897
0.149684
0.0652934
0.139773
0.139237
0.168648
0.176297
0.152054
0.196111
0.0772251
0.0758099
0.153706
0.138317
0.162211
0.000223542
0.135071
0.121022
0.140339
0.142034
0.149575
0.111577
0.147492
0.136466
0.139772
0.140585
0.161009
0.14003
0.136119
0.262251
0.22445
0.202333
0.302043
0.147627
0.142961
0.147201
0.254228
0.237174
0.133186
0.143847
0.165753
0.150752
0.162776
0.162903
0.154265
0.161804
0.173032
0.157072
0.170628
0.173705
0.160222
0.165392
0.1785
0.173831
0.171423
0.0941265
0.0823887
0.182316
0.24844
0.214639
0.197903
0.174033
0.228538
0.200216
0.188079
0.155899
0.154043
0.172716
0.000227879
0.000223633
0.204837
0.160428
0.139486
0.139544
0.212175
0.139181
0.139019
0.119626
0.122417
0.151501
0.143553
0.188946
0.142632
0.155554
0.145114
0.128829
0.130999
0.134819
0.120063
0.132302
0.139598
0.139231
0.154958
0.150175
0.155234
0.141257
0.136374
0.143539
0.14634
0.146692
0.141161
0.146817
0.151879
0.149794
0.218037
0.177301
0.153685
0.142318
0.150023
0.135877
0.144094
0.129248
0.140309
0.184346
0.173339
0.214921
0.218613
0.194983
0.257698
0.0684476
0.100453
0.0594698
0.112188
0.0383538
0.0363407
0.0999959
0.137475
0.119588
0.0846741
0.0339857
0.0630733
0.0533597
0.00998403
0.0822475
0.0762165
0.0591368
0.0719758
0.0811829
0.0854441
0.0705737
0.0688029
0.138012
0.131719
0.0457927
0.0593107
0.000982386
0.06664
0.0611388
0.0793365
0.123364
0.0646524
0.0595321
0.103345
0.0952897
0.0882007
0.0773246
0.114381
0.111127
0.0365209
0.0364829
0.0436829
0.0409985
0.0971118
0.0971039
0.103698
0.1024
0.0471875
0.00122766
0.0817385
0.0545985
0.0968058
0.122733
0.122377
0.0543867
0.0861399
0.0876393
0.0465542
0.049993
0.0455856
0.0759304
0.0706834
0.0535014
0.0568656
0.0535502
0.133859
0.0701218
0.128983
0.0894402
0.138194
0.116616
0.116385
0.0684259
0.000213513
0.137755
0.0477986
0.0699772
0.0710992
0.0506416
0.0809078
0.0812072
0.108246
0.0697542
0.0699228
0.064979
0.0963339
0.0644632
0.0663818
0.0652394
0.0529311
0.0589611
0.0746214
0.131596
0.110951
0.111882
0.112617
0.110088
0.0414115
0.0402113
0.0423745
0.0848563
0.0870501
0.0657596
0.0929682
0.095419
0.0930894
0.0629908
0.0577405
0.0578744
0.0890924
0.0884774
0.0403195
0.0414409
0.0435539
0.0383783
0.111065
0.112624
0.112757
0.111159
0.0662565
0.0641424
0.137679
0.0989546
0.0470438
0.0453536
0.0953064
0.120689
0.0415864
0.111301
0.134723
0.0456525
0.0496332
0.0479495
0.047361
0.0714482
0.0706184
0.0645513
0.0860874
0.0870505
0.084641
0.0617329
0.0562472
0.0533831
0.054499
0.0568699
0.0627019
0.0730757
0.13265
0.121167
0.109745
0.109953
0.120401
0.132556
0.000405466
0.0395469
0.0946234
0.0903063
0.13614
0.143544
0.128627
0.0996549
0.0949525
0.0967043
0.0828736
0.0862112
0.0816801
0.116892
0.126639
0.12246
0.131185
0.071159
0.0792746
0.0749672
0.0748758
0.0883919
0.0846325
0.0828893
0.0905658
0.0841063
0.0869612
0.0881595
0.0679613
0.0660413
0.0767193
0.0668688
0.0826046
0.0702921
0.0915787
0.0840006
0.0873837
0.0890471
0.0352972
0.137224
0.138428
0.139435
0.138688
0.0633203
0.0664515
0.0469354
0.0462251
0.044215
0.0588118
0.104703
0.0493537
0.0585212
0.0623388
0.0404401
0.0526581
0.0560485
0.0498104
0.0709447
0.078698
0.0730728
0.0755572
0.0494087
0.0546387
0.0524794
0.0515176
0.129864
0.0635311
0.0610461
0.0657425
0.059544
0.0875921
0.0910629
0.0616061
0.0640106
0.0639707
0.0616891
0.151193
0.149838
0.13543
0.0946155
0.0909375
0.0943537
0.0901397
0.121935
0.137928
0.0746827
0.0843694
0.129823
0.144594
0.138727
0.130394
0.134091
0.00541434
0.124197
0.125611
0.0747426
0.0722201
0.0745789
0.0774465
0.0702401
0.0809167
0.0899192
0.0858678
0.0854274
0.137935
0.13775
0.138007
0.139659
0.139596
0.165046
0.150551
0.157044
0.158271
0.140507
0.144462
0.142402
0.142293
0.0597811
0.0566708
0.055156
0.0608199
0.103775
0.102583
0.106316
0.0441523
0.0413274
0.0413454
0.0438216
0.136889
0.134675
0.13614
0.000970471
0.00428956
0.138649
0.00975625
0.11956
0.139542
0.138714
0.00141567
0.00214387
0.139022
0.139048
0.139215
0.138824
0.0948897
0.138489
0.123681
0.000370326
0.000447365
0.137297
0.056773
0.229781
0.139293
0.255968
0.126119
0.140705
0.138871
0.000838463
0.141409
0.134079
0.140303
0.137764
0.0931653
0.123474
0.136551
0.121975
0.133662
0.144402
0.129249
0.124173
0.170321
0.210608
0.240516
0.109969
0.109147
0.139012
0.139002
0.139744
0.139575
0.129917
0.00884011
0.128072
0.121545
0.107594
0.139073
0.119348
0.139084
0.13905
0.139022
0.00301365
0.138393
0.138608
0.0953972
0.0940333
0.0939012
0.122412
0.243765
0.209468
0.128898
0.124449
0.129029
0.101416
0.106717
0.127399
0.128185
0.18443
0.204491
0.128498
0.252045
0.138211
0.138324
0.253024
0.206988
0.000920175
0.125376
0.2614
0.0955225
0.141821
0.142992
0.000302663
0.0754813
0.0691612
0.137468
0.139556
0.139343
0.108506
0.12096
0.131246
0.129545
0.0391104
0.0390269
0.143861
0.141258
0.144789
0.139505
0.139246
0.00136369
0.138878
0.137291
0.136085
0.137786
0.138037
0.138257
0.183991
0.133233
0.136103
0.130076
0.132603
0.160383
0.166205
0.199386
0.177093
0.120893
0.137545
0.132618
0.14067
0.123108
0.118447
0.145777
0.159895
0.150059
0.1467
0.123175
0.119197
0.0558926
0.0513245
0.0474555
0.0380245
0.139014
0.140602
0.142082
0.253461
0.193975
0.0864364
0.09281
0.200832
0.172059
0.196879
0.145532
0.159296
0.153661
0.164407
0.234653
0.18912
0.181433
0.098124
0.0961964
0.138763
0.138567
0.139555
0.138283
0.157003
0.111007
0.114363
0.118087
0.137571
0.138177
0.137545
0.137633
0.137224
0.139664
0.161875
0.153256
0.132797
0.139562
0.142485
0.145068
0.135503
0.136114
0.212504
0.267881
0.237716
0.108723
0.113083
0.115649
0.00664251
0.00719845
0.136047
0.133482
0.0644177
0.0602806
0.165915
0.168772
0.162051
0.0515811
0.0490037
0.097033
0.0960763
0.0369667
0.0542522
0.0810235
0.126606
0.125699
0.126822
0.0282955
0.111468
0.00541525
0.0779646
0.0297271
0.0597484
0.0337609
0.0251428
0.113644
0.0553963
0.00711032
0.0258778
0.0267523
0.0934779
0.093055
0.123237
0.114466
0.114962
0.126419
0.0915723
0.0901107
0.0467157
0.126654
0.126165
0.0997159
0.104007
0.103995
0.113702
0.105383
0.105819
0.048361
0.127222
0.127133
0.0354876
0.00296843
0.0498847
0.0525755
0.0319306
0.0859618
0.0941374
0.0385857
0.0850348
0.0256071
0.081122
0.0755167
0.109599
0.0142606
0.109194
0.109262
0.114059
0.0943795
0.098021
0.0600766
0.108757
0.0919325
0.0935819
0.100346
0.0578066
0.110477
0.0232643
0.0279195
0.105978
0.0972029
0.067227
0.0659587
0.0417199
0.0843279
0.045026
0.0594617
0.0615406
0.0919326
0.00166145
0.0445706
0.0698498
0.124799
0.072855
0.0713427
0.124535
0.0885873
0.0892119
0.0854727
0.00162926
0.119836
0.0676146
0.0689581
0.0215991
0.120216
0.120109
0.0397282
0.0413447
0.0569164
0.0578941
0.0627801
0.110399
0.0598094
0.0753909
0.0721508
0.104164
0.0817866
0.00839243
0.117155
0.117013
0.0340181
0.0935413
0.0968301
0.0340886
0.00180924
0.0730162
0.0643615
0.107296
0.106683
0.0617482
0.0560959
0.0916711
0.092624
0.0694175
0.0172476
0.0864238
0.0716332
0.0659681
0.0467717
0.106561
0.0648396
0.00261941
0.0466793
0.0878475
0.0232299
0.0229249
0.0953241
0.0952986
0.118627
0.0857924
0.122996
0.0168383
0.0896918
0.0904414
0.124002
0.102931
0.0701064
0.103733
0.0949977
0.091538
0.127281
0.00680136
0.0211929
0.0508307
0.109775
0.0695045
0.0725295
0.0768472
0.0992942
0.125771
0.100614
0.0999593
0.0907827
0.122464
0.119434
0.117494
0.0944646
0.091352
0.0620616
0.0353134
0.0339036
0.0332734
0.0971741
0.0675341
0.0327322
0.0705042
0.0676281
0.101661
0.0818341
0.070907
0.0337928
0.0953617
0.0973939
0.0845409
0.136113
0.107529
0.0852565
0.0867207
0.0931715
0.0840123
0.0935829
0.116246
0.106884
0.127404
0.127218
0.0553379
0.107845
0.0510821
0.0823439
0.0979594
0.111288
0.112498
0.0646931
0.0862491
0.0859208
0.0667967
0.135303
0.0880969
0.0490594
0.0482149
0.0791181
0.122758
0.1218
0.0849513
0.0784881
0.0765339
0.0537408
0.074624
0.069371
0.0187509
0.0951459
0.0955235
0.0969429
0.12188
0.122258
0.12153
0.121203
0.0942804
0.0932949
0.044106
0.0629028
0.0635237
0.0625966
0.0994953
0.118651
0.026415
0.0854904
0.0938426
0.0878078
0.0365833
0.113292
0.118548
0.0853068
0.0869766
0.0628772
0.0688909
0.119734
0.0829753
0.0519711
0.0862091
0.0865383
0.0935844
0.0919548
0.06352
0.00517065
0.125864
0.124152
0.112537
0.12497
0.125872
0.0807431
0.0818224
0.119182
0.103121
0.0283558
0.035776
0.127069
0.0785934
0.0723568
0.104752
0.0647937
0.0608838
0.109479
0.0772357
0.07364
0.0927216
0.0929489
0.100229
0.0506906
0.0497267
0.110358
0.110829
0.0155686
0.0349314
0.0280581
0.100593
0.0436157
0.0653917
0.0662949
0.019231
0.0148857
0.108902
0.108731
0.109983
0.0712026
0.0683008
0.100006
0.0952126
0.11778
0.0894574
0.0881372
0.0925743
0.0295097
0.030496
0.104304
0.111254
0.0299298
0.0283669
0.11715
0.116767
0.110913
0.110434
0.112109
0.0806176
0.0801039
0.00790988
0.103288
0.0572227
0.105503
0.0371543
0.0368423
0.0168954
0.0637539
0.0781743
0.0725633
0.12676
0.0342365
0.0944587
0.0957462
0.115573
0.109574
0.0800827
0.0630876
0.0644571
0.0716837
0.0740799
0.100077
0.0994992
0.0981964
0.0954804
0.100634
0.0657449
0.0363469
0.0449027
0.109035
0.059409
0.0602515
0.0936236
0.0950296
0.0898459
0.0789441
0.0802727
0.0902183
0.0902618
0.113908
0.114171
0.113123
0.115082
0.116085
0.0805992
0.11848
0.0142316
0.0555703
0.0619154
0.0432083
0.0439734
0.0877728
0.100122
0.0959977
0.100265
0.102138
0.10204
0.102271
0.103429
0.101101
0.0907829
0.0882585
0.0325884
0.0592959
0.0580503
0.118795
0.119319
0.117901
0.00642032
0.11789
0.10589
0.103253
0.115946
0.114909
0.115792
0.11005
0.11143
0.0579987
0.06186
0.0609684
0.0587238
0.0572934
0.0530809
0.065684
0.0943327
0.0937831
0.0937514
0.104795
0.0883453
0.0294702
0.0549903
0.050291
0.0539416
0.0503998
0.0465213
0.105395
0.0974863
0.0982772
0.0732669
0.106803
0.103897
0.0993834
0.0960308
0.0785292
0.0764778
0.0779853
0.0811384
0.0785419
0.0827473
0.0840611
0.0699488
0.121973
0.122412
0.104524
0.0423657
0.126245
0.126147
0.125807
0.0697033
0.000971388
0.107859
0.075195
0.0730554
0.0119419
0.000384201
0.101834
0.0977127
0.107573
0.0898086
0.091189
0.0771454
0.0869754
0.0795275
0.112253
0.0231498
0.0751448
0.0748368
0.0775292
0.0567456
0.100639
0.0992393
0.101654
0.112402
0.113031
0.000654121
0.076125
0.0743779
0.10014
0.102825
0.0981526
0.00101502
0.00079209
0.0918617
0.0409861
0.035009
0.0719893
0.0749657
0.073957
0.073078
0.0875456
0.0510431
0.0500074
0.108564
0.000586812
0.12193
0.121977
0.0790784
0.0778553
0.10834
0.0272563
0.116441
0.114368
0.0976334
0.0979557
0.0485009
0.0850128
0.0856236
0.0857977
0.105906
0.105999
0.121373
0.0864103
0.102315
0.0534175
0.00201441
0.0424852
0.110886
0.000547317
0.0664151
0.0924081
0.0825081
0.021892
0.0746989
0.07241
0.0949578
0.0974726
0.0866311
0.0824924
0.0579464
0.0587731
0.0552551
0.0762634
0.0774501
0.0758065
0.126907
0.126656
0.000952073
0.0234859
0.000479559
0.100873
0.0195221
0.135958
0.13614
0.136277
0.1359
0.112904
0.084038
0.0841784
0.137733
0.138072
0.100882
0.0774006
0.0758547
0.0756384
0.0704952
0.100983
0.120351
0.122114
0.0927837
0.0887907
0.0951768
0.0914219
0.0922664
0.000512169
0.0589092
0.0614356
0.0625266
0.0580286
0.126782
0.126546
0.0320091
0.0926812
0.0942751
0.12755
0.0993765
0.100583
0.0954833
0.0675333
0.0647169
0.0702708
0.0711374
0.07039
0.127914
0.10839
0.0598524
0.0596587
0.105027
0.106652
0.0916708
0.0917482
0.0924775
0.0909681
0.123112
0.123296
0.0988839
0.10476
0.105287
0.105027
0.0978939
0.0955896
0.000286332
0.0678116
0.0685586
0.0445099
0.0407497
0.000413992
0.000820098
0.000815363
0.038985
0.0384442
0.0312927
0.0316086
0.0902143
0.0879576
0.0853982
0.109756
0.0382914
0.0460066
0.0449301
0.0492186
0.102587
0.100647
0.10343
0.100592
0.000417363
0.000749183
0.00102286
0.00163718
0.00912692
0.0258916
0.0582837
0.0569804
0.000984231
0.0814859
0.0248967
0.0912267
0.0909536
0.0936552
0.0909903
0.0914688
0.0905092
0.10519
0.10672
0.104066
0.102263
0.121738
0.093157
0.0970381
0.0916949
0.0817706
0.0824665
0.0792995
0.116183
0.104945
0.109969
0.0935631
0.0945209
0.0945991
0.122123
0.122346
0.122161
0.121567
0.0668304
0.0710361
0.116194
0.121363
0.120624
0.121778
0.00038344
0.000670444
0.0895859
0.0901198
0.0895863
0.0900737
0.0668133
0.117641
0.118348
0.116748
0.0908876
0.0922915
0.0926932
0.0903608
0.105989
0.106493
0.104415
0.138
0.0731274
0.106729
0.106628
0.105553
0.107869
0.0777354
0.0837178
0.107353
0.108379
0.113467
0.112146
0.0477483
0.128279
0.0635314
0.0605133
0.106057
0.000329386
0.0966566
0.111147
0.114341
0.114965
0.113837
0.0823137
0.0833058
0.0167245
0.0840348
0.083027
0.0866971
0.0748031
0.0777632
0.070918
0.0852702
0.0891998
0.0885381
0.015095
0.0154839
0.0735058
0.0746803
0.113431
0.113231
0.114611
0.00030459
0.0563251
0.000840824
0.103963
0.103959
0.101806
0.103247
0.102061
0.00180482
0.0739442
0.0754467
0.0750783
0.0971067
0.0937625
0.0948147
0.0949055
0.102284
0.100991
0.0999476
0.10321
0.0419084
0.0388484
0.0408718
0.039544
0.092804
0.0888557
0.0931731
0.0963723
0.00111942
0.0163379
0.0893188
0.0895219
0.0888006
0.0899313
0.0983357
0.0990527
0.0996842
0.0622727
0.0997434
0.0993777
0.103119
0.107144
0.106184
0.106619
0.0942195
0.0962828
0.0948595
0.0969666
0.0982603
0.0745437
0.0719956
0.0723133
0.0741617
0.102862
0.10473
0.104009
0.103451
0.0758395
0.0740029
0.0791117
0.0991008
0.0968437
0.111886
0.111888
0.111029
0.102241
0.0993628
0.0691098
0.0706247
0.120502
0.118908
0.119201
0.120287
0.0806376
0.0771157
0.0782617
0.0933936
0.0938056
0.0713154
0.0679517
0.0665365
0.0474504
0.0900882
0.08747
0.109548
0.0751199
0.0757731
0.0604852
0.0851265
0.0871577
0.0869297
0.0851796
0.00130423
0.0962803
0.0981756
0.0968759
0.097572
0.137009
0.13717
0.0838759
0.081378
0.0825671
0.0827505
0.0955442
0.0958191
0.0935392
0.0617281
0.0657873
0.0612563
0.0718253
0.0734742
0.0716621
0.0735911
0.0965908
0.116838
0.0914213
0.0812577
0.0800504
0.0817109
0.0794807
0.0145034
0.116531
0.0142126
0.014124
0.0925465
0.0923103
0.0922026
0.0925621
0.0625024
0.0745015
0.0736357
0.110057
0.109634
0.109815
0.100637
0.0881366
0.11
0.111431
0.109114
0.0885052
0.0818075
0.084845
0.0851405
0.0596914
0.127548
0.127347
0.0350895
0.0396347
0.0797955
0.0786586
0.0784604
0.00137848
0.0972599
0.114729
0.0729815
0.0724185
0.0743892
0.107018
0.0718883
0.0690062
0.0730802
0.110818
0.108191
0.1096
0.0704651
0.0705695
0.128412
0.129434
0.0806462
0.0823857
0.0848754
0.0986502
0.0948679
0.0924622
0.0381033
0.0433548
0.0408549
0.0354028
0.0349215
0.0118219
0.00982124
0.0150995
0.0920598
0.0898097
0.0916443
0.099414
0.0989509
0.100881
0.109442
0.108586
0.115374
0.114439
0.0925902
0.0927707
0.0650293
0.0671408
0.103665
0.118704
0.0959342
0.0967603
0.0826884
0.0850777
0.0811554
0.0845862
0.0865201
0.0855597
0.0227876
0.0272327
0.105013
0.103175
0.103819
0.104439
0.0725901
0.0693197
0.0712261
0.0714697
0.0439004
0.04317
0.0450663
0.0417902
0.000936322
0.0728198
0.0739775
0.0749682
0.0727952
0.0685924
0.0622227
0.0606501
0.112288
0.111381
0.112472
0.0753428
0.081597
0.11428
0.113872
0.114928
0.113495
0.0539909
0.0916201
0.0906531
0.0634224
0.0627426
0.0640722
0.0620856
0.111392
0.112388
0.110665
0.0238388
0.0252174
0.021214
0.0819939
0.0836404
0.0794866
0.0635179
0.061244
0.0731414
0.070025
0.0929478
0.0940732
0.0941606
0.0985627
0.0998196
0.102325
0.101946
0.078564
0.0780303
0.0750051
0.0761405
0.0769736
0.111114
0.109245
0.109375
0.110889
0.124878
0.0965063
0.0983718
0.0957444
0.0996134
0.10973
0.0916231
0.0912348
0.0923368
0.0906167
0.0899157
0.0909176
0.0914106
0.0895608
0.0337308
0.0746359
0.0745455
0.116759
0.117569
0.000870845
0.0239258
0.0698158
0.0692667
0.102548
0.10367
0.108705
0.107587
0.109599
0.109275
0.106774
0.01173
0.0143028
0.0856738
0.0837687
0.0852752
0.0842743
0.125927
0.0901791
0.0897519
0.0896149
0.0151726
0.0841915
0.0826667
0.0844921
0.0822722
0.0753153
0.0774178
0.0755454
0.0770736
0.0834071
0.0831428
0.0823728
0.127737
0.0593541
0.0575662
0.0569649
0.0598062
0.0437285
0.0460705
0.117975
0.109632
0.109951
0.109857
0.069782
0.0723225
0.0712707
0.0708337
0.122944
0.123776
0.0980722
0.0995868
0.0994387
0.0981468
0.0630159
0.068436
0.0686152
0.0758321
0.0431222
0.0372225
0.0646604
0.0661031
0.122612
0.122052
0.122429
0.0980625
0.097375
0.0969979
0.0602826
0.0576562
0.0593565
0.0868231
0.087512
0.0883618
0.0859255
0.0339027
0.0678578
0.067306
0.0691487
0.0659392
0.00557027
0.0665046
0.0754708
0.0818769
0.10163
0.102998
0.102953
0.101585
0.128117
0.0891517
0.0887016
0.0885097
0.0892573
0.103858
0.105245
0.103758
0.0570256
0.0917621
0.0914766
0.0919701
0.10051
0.102695
0.0715416
0.0770947
0.0749671
0.104579
0.102599
0.105471
0.117091
0.0359085
0.126966
0.049819
0.0456836
0.0878629
0.0871203
0.0905809
0.0334312
0.0300088
0.0354278
0.105196
0.105893
0.108073
0.104862
0.0519288
0.0504407
0.0866271
0.0842087
0.0848452
0.0861138
0.0923864
0.0924529
0.0428691
0.044838
0.0899692
0.0881435
0.0899883
0.0878846
0.12388
0.124315
0.0641622
0.0934486
0.0937038
0.0937921
0.07235
0.0733602
0.0719355
0.0312981
0.075289
0.0751612
0.0784742
0.0721941
0.0685279
0.0725367
0.0709105
0.070011
0.0861476
0.0832467
0.0847208
0.102748
0.0952019
0.101405
0.0979245
0.0449141
0.0790718
0.078102
0.113983
0.115592
0.0848657
0.0833051
0.0829349
0.0851119
0.0921073
0.0917881
0.120362
0.118515
0.0605003
0.0913866
0.093496
0.0937722
0.0591398
0.0546502
0.0580205
0.0552633
0.0491031
0.0553902
0.101256
0.102015
0.100414
0.0671557
0.0596215
0.0641476
0.062802
0.0876923
0.0859585
0.108674
0.098478
0.0887428
0.0935121
0.0919084
0.0897847
0.106558
0.0482073
0.0498085
0.0520697
0.0463314
0.107497
0.105679
0.108427
0.0327437
0.0346521
0.0652866
0.066266
0.0643406
0.0671668
0.0735579
0.076633
0.0639766
0.0658336
0.0950116
0.0643522
0.0891043
0.0878832
0.0815143
0.0102142
0.116317
0.115443
0.116059
0.0832906
0.0438303
0.0593162
0.0954123
0.0921457
0.093271
0.0960783
0.0783663
0.0792861
0.0780654
0.0523832
0.0538736
0.000233813
0.0990288
0.0627397
0.114784
0.112816
0.11344
0.114192
0.104863
0.106498
0.106086
0.10526
0.102333
0.103348
0.101599
0.103948
0.0697568
0.0708738
0.0718396
0.0687184
0.110821
0.110014
0.110915
0.109848
0.0806124
0.0817721
0.078095
0.0551212
0.0343574
0.0819693
0.107925
0.104574
0.122905
0.122004
0.054675
0.0365791
0.0934728
0.0940798
0.0944514
0.0520436
0.0664261
0.0651732
0.0638262
0.0675656
0.111313
0.109402
0.108023
0.108535
0.108914
0.0473282
0.0439433
0.0462106
0.0448303
0.0875862
0.0874459
0.0879891
0.0869761
0.0747991
0.0732156
0.0736427
0.0743607
0.114118
0.114267
0.114633
0.113718
0.0558822
0.052231
0.0552338
0.0527927
0.0703687
0.0676055
0.0989509
0.0953631
0.0949308
0.0983926
0.114354
0.117116
0.115579
0.121251
0.109103
0.107199
0.107436
0.0978387
0.0936603
0.0970837
0.0934966
0.0951307
0.0905489
0.0929126
0.039468
0.109285
0.108512
0.000221646
0.0718585
0.0740627
0.0722727
0.0736681
0.0830804
0.0814243
0.0855318
0.0645005
0.0107951
0.00937479
0.0129994
0.102473
0.104029
0.127808
0.0959724
0.0945565
0.10304
0.101384
0.103046
0.0991083
0.0984115
0.0985775
0.0997423
0.114684
0.115802
0.11466
0.0985816
0.101299
0.0770168
0.0809886
0.0786974
0.000183809
0.0973831
0.0977832
0.109792
0.108297
0.0670668
0.0684242
0.0656023
0.0697135
0.0475499
0.0544208
0.0339058
0.0362053
0.118608
0.117449
0.0710864
0.0708994
0.072056
0.0699237
0.0909294
0.0969494
0.0945124
0.110325
0.107733
0.108886
0.109111
0.0843723
0.0834875
0.0846812
0.0830226
0.081536
0.0829414
0.0828075
0.0815654
0.0749507
0.0756603
0.0740116
0.0610036
0.0622746
0.0628575
0.0602717
0.0807104
0.0836625
0.110989
0.0511024
0.0559496
0.054973
0.00119155
0.0661945
0.0651271
0.0652578
0.0733384
0.0715955
0.0796603
0.080568
0.0793239
0.0808003
0.0631757
0.0578404
0.0857491
0.0858112
0.085118
0.0863683
0.116453
0.117435
0.1179
0.115916
0.0688673
0.0695527
0.067881
0.0705447
0.11906
0.119446
0.119107
0.0640065
0.0654072
0.0657407
0.06364
0.127065
0.127357
0.127012
0.0530937
0.0872995
0.0864383
0.0873388
0.0864839
0.0449493
0.0609896
0.0281755
0.0103329
0.0988992
0.00434624
0.00340098
0.00321887
0.0282317
0.0700158
0.0231917
0.000821652
0.00116941
0.000758491
0.000279138
0.048397
0.000287069
0.000398597
0.00950366
0.00934943
0.092401
0.0170808
0.01532
0.138803
0.0160294
0.128705
0.0223562
0.0293616
0.0293788
0.0263213
0.000681983
0.0814631
0.0129723
0.0104047
0.0109323
0.00986184
0.110097
0.137013
0.0236245
0.0257833
0.0549082
0.00298296
0.0883935
0.137201
0.0997933
0.122483
0.118974
0.0879551
0.00358541
0.0294044
0.000340637
0.000572994
0.000547283
0.0230314
0.0213408
0.00639671
0.0337621
0.00465045
0.0054893
0.0225708
0.000879939
0.0973924
0.0596531
0.138653
0.138534
0.000433743
0.0428333
0.0409032
0.0196414
0.0141472
0.0392215
0.0385327
0.0396334
0.0774802
0.0801819
0.00627967
0.0811895
0.137457
0.137109
0.0408808
0.00068909
0.00767146
0.00417079
0.0787529
0.011399
0.0353279
0.000473989
0.0363033
0.0231529
0.130026
0.00516219
0.0152376
0.0132365
0.13838
0.113887
0.00603207
0.0796066
0.0369257
0.0070291
0.135081
0.0423622
0.00252124
0.034313
0.0332216
0.00820108
0.0191528
0.0199684
0.0223022
0.018063
0.0252104
0.0444916
0.0456465
0.0356788
0.00177747
0.0191937
0.0559237
0.136091
0.0167472
0.118692
0.0291535
0.121819
0.00090311
0.0215124
0.0204462
0.0213967
0.104195
0.046638
0.0477671
0.0108347
0.000344885
0.00172873
0.00445971
0.0798592
0.0791353
0.0327843
0.0273752
0.00911894
0.0116094
0.00472003
0.0399875
0.0432269
0.13276
0.0025668
0.137184
0.1376
0.0530485
0.0296859
0.0342363
0.0928392
0.0912162
0.0336366
0.0323068
0.0575166
0.0482126
0.00810553
0.00799698
0.0586485
0.0304632
0.0376441
0.0751015
0.0764739
0.0724072
0.00491218
0.0146887
0.109847
0.109067
0.0504599
0.0463267
0.0296688
0.0574907
0.0607271
0.0834631
0.00402129
0.00410091
0.0457686
0.138516
0.00794146
0.0106246
0.00949025
0.00330844
0.00435891
0.0086328
0.0115267
0.0170998
0.00399434
0.00885371
0.0119668
0.00441077
0.00587743
0.0293684
0.0286681
0.0511004
0.00896891
0.0126122
0.0346202
0.000813618
0.00132929
0.0301017
0.00327364
0.034391
0.031409
0.0236005
0.0226063
0.0137962
0.0079978
0.010894
0.0142888
0.123208
0.0100122
0.0778984
0.0768804
0.0764071
0.0701623
0.0549934
0.00636844
0.0246255
0.0120516
0.131098
0.0433688
0.00291269
0.0118181
0.0110981
0.0134798
0.00926198
0.00690721
0.140005
0.0380555
0.0412288
0.0081837
0.00634462
0.102503
0.121276
0.137325
0.133408
0.00748204
0.0349699
0.138762
0.0386107
0.0387479
0.000866199
0.00788722
0.0267864
0.117373
0.119985
0.0187667
0.090876
0.00956082
0.00833681
0.0094444
0.00437923
0.094864
0.0944875
0.0944409
0.00140534
0.0341774
0.123588
0.123113
0.11474
0.0898922
0.0356392
0.0595709
0.0527392
0.119418
0.13919
0.139067
0.0399265
0.137436
0.00214495
0.00261776
0.00834579
0.0245681
0.0218449
0.0399938
0.0400273
0.0385544
0.0386539
0.00630207
0.00539528
0.00367117
0.138935
0.0909211
0.0116443
0.120768
0.129556
0.130117
0.056957
0.0708442
0.0688129
0.166328
0.148299
0.00169724
0.0143656
0.102539
0.101098
0.0104177
0.00959858
0.051025
0.0501025
0.080275
0.0783118
0.0837661
0.0874259
0.040914
0.0422043
0.0398893
0.0951281
0.0355874
0.0353311
0.0512919
0.027604
0.0345223
0.0326172
0.00446182
0.0429415
0.00759781
0.126943
0.0106489
0.0118594
0.0444039
0.0632256
0.040974
0.0440886
0.100324
0.093207
0.108927
0.0446182
0.0893864
0.0239806
0.13814
0.0541704
0.00202682
0.0364735
0.00559142
0.0057267
0.13768
0.0295521
0.0294027
0.0293739
0.137728
0.102902
0.105314
0.0390757
0.0595034
0.0602534
0.0770805
0.0779202
0.0661563
0.032533
0.0353682
0.0332486
0.0349216
0.0937177
0.0863146
0.136083
0.136603
0.0985054
0.0979518
0.120465
0.00654664
0.0056501
0.123644
0.0160438
0.13689
0.06272
0.0647688
0.0666433
0.0935987
0.0898994
0.0923238
0.116447
0.147125
0.139307
0.122084
0.120788
0.121491
0.122325
0.00891459
0.0589177
0.0512236
0.0149322
0.0146436
0.0987954
0.0438468
0.0791641
0.0851042
0.0546507
0.170521
0.0267194
0.038072
0.0286943
0.0310487
0.0100733
0.0266494
0.0275087
0.121559
0.124007
0.122951
0.047189
0.0476663
0.0112896
0.120606
0.0302191
0.0237427
0.0322723
0.0289402
0.0285097
0.0602507
0.0704853
0.0723482
0.0756211
0.132909
0.126806
0.00300567
0.00393314
0.138641
0.0317724
0.0149672
0.0121064
0.118897
0.117399
0.13855
0.110127
0.138663
0.132856
0.132092
0.0190369
0.0414056
0.125972
0.126847
0.124763
0.125382
0.0872857
0.0823915
0.0955446
0.0977974
0.125689
0.123389
0.00349426
0.118698
0.1176
0.0687822
0.138896
0.138728
0.138673
0.102984
0.102935
0.137669
0.139691
0.138331
0.080545
0.0431522
0.0452947
0.0449518
0.0956494
0.0939096
0.0956629
0.135341
0.135225
0.0956978
0.0651664
0.0677808
0.138369
0.137006
0.0493139
0.0497768
0.0479019
0.030866
0.000560121
0.00467614
0.0847338
0.0299126
0.0334833
0.0350442
0.0751277
0.00129447
0.00223352
0.0973552
0.0981661
0.0341218
0.00744234
0.0162191
0.0188512
0.00562662
0.0403809
0.0413045
0.0448342
0.113061
0.114792
0.0352908
0.0134612
0.0144085
0.00622016
0.00699461
0.129479
0.127606
0.12264
0.128317
0.136006
0.10895
0.0883383
0.0865989
0.073222
0.0811314
0.0785928
0.093036
0.095325
0.0799723
0.0781564
0.0364593
0.0381751
0.138672
0.138599
0.242659
0.227105
0.0494488
0.00799648
0.052429
0.0103986
0.0243346
0.0216162
0.0214078
0.00651337
0.115448
0.046291
0.0523188
0.0677761
0.0635281
0.059232
0.0604748
0.0694234
0.0679189
0.0553172
0.0542693
0.0327263
0.0216539
0.0469783
0.0169646
0.062521
0.136611
0.0127188
0.013529
0.130565
0.13437
0.0460907
0.0535986
0.0496904
0.0087379
0.0665244
0.0691272
0.0904334
0.0637728
0.0629324
0.109433
0.0235964
0.00083777
0.0650559
0.0656464
0.0164555
0.0130314
0.0154092
0.0811526
0.0820724
0.0810986
0.0895924
0.0881795
0.088834
0.122758
0.121257
0.133572
0.0968574
0.0976444
0.0513765
0.0542062
0.0538004
0.0519966
0.0742329
0.0110662
0.13992
0.139673
0.139879
0.135077
0.0806331
0.0205074
0.0220337
0.0285502
0.0253531
0.0565753
0.0510181
0.0552837
0.0508708
0.0551965
0.0600533
0.0469717
0.0979871
0.103719
0.108262
0.0282559
0.0281052
0.0420724
0.0423658
0.052589
0.0717273
0.123945
0.0952586
0.128146
0.0368684
0.0050109
0.00552299
0.135229
0.0233021
0.11825
0.00711229
0.0368622
0.0341698
0.0370091
0.019434
0.0255603
0.075224
0.0335703
0.0303026
0.0282949
0.0946059
0.0317901
0.00149745
0.00275592
0.118124
0.138261
0.110328
0.110936
0.0631038
0.111658
0.10669
0.0189013
0.0196014
0.0440648
0.0416206
0.0434816
0.0831731
0.0202493
0.0212014
0.140027
0.140516
0.051858
0.0215473
0.0197821
0.0556441
0.138756
0.0910475
0.0890646
0.0578885
0.124856
0.0482307
0.00597396
0.00282863
0.00592358
0.0443633
0.0945645
0.0069256
0.18321
0.00260702
0.00545479
0.00842924
0.00429438
0.00377503
0.00386663
0.00284973
0.00723235
0.128868
0.0354846
0.0370127
0.0555934
0.0569606
0.10945
0.107925
0.139338
0.139473
0.139256
0.0699223
0.0942477
0.0927015
0.0668581
0.0648237
0.0624526
0.050775
0.0508698
0.0654625
0.0636052
0.0382225
0.0408853
0.0438314
0.145611
0.150662
0.138158
0.13796
0.0474168
0.119754
0.115846
0.0418148
0.0457256
0.137545
0.137224
0.0142289
0.106784
0.10589
0.139087
0.138806
0.00913179
0.133915
0.0649517
0.0715459
0.103566
0.0434751
0.0343182
0.0038563
0.0375806
0.0938941
0.1233
0.123851
0.0423971
0.0471147
0.0485035
0.00497611
0.0678813
0.0685524
0.0598474
0.12453
0.125019
0.125989
0.0375039
0.0658808
0.0677898
0.0687604
0.0679966
0.061134
0.105333
0.107046
0.080894
0.0616924
0.0627775
0.0614841
0.0669423
0.0680823
0.00163376
0.112499
0.113576
0.115616
0.0416688
0.039094
0.0998304
0.0992838
0.136661
0.136692
0.0431695
0.0475091
0.126484
0.127344
0.0615239
0.061908
0.0605019
0.231364
0.187635
0.0789103
0.0771918
0.0217924
0.0244173
0.120761
0.0942904
0.0974815
0.131281
0.130487
0.129662
0.0568908
0.0607236
0.138456
0.138168
0.066362
0.0650821
0.0665802
0.0683927
0.0651726
0.107928
0.107539
0.106477
0.0357208
0.040438
0.106668
0.108062
0.0288924
0.13803
0.138207
0.080906
0.12669
0.122878
0.031482
0.0615033
0.0647528
0.0559449
0.0569044
0.0356725
0.13821
0.117952
0.10313
0.109676
0.114943
0.0383473
0.126201
0.138198
0.0344624
0.00239133
0.00491474
0.0930309
0.0927406
0.0141803
0.068935
0.0602991
0.0558598
0.120359
0.119161
0.0655496
0.0690782
0.0532386
0.0624935
0.0666463
0.0134123
0.0664226
0.0646972
0.0635176
0.0185566
0.0184138
0.121508
0.0709387
0.0716062
0.0698337
0.0347388
0.0400146
0.0359859
0.0486397
0.0498096
0.0270117
0.0504633
0.0498845
0.0691284
0.0655097
0.0650163
0.00802676
0.00713956
0.0896103
0.0885801
0.0875164
0.0584924
0.0535386
0.0519284
0.0457344
0.0475925
0.00367653
0.0588375
0.0959839
0.0959946
0.0955875
0.0952303
0.0432935
0.111611
0.112762
0.114778
0.0163328
0.148719
0.160666
0.0408545
0.0380876
0.1259
0.124452
0.150559
0.155624
0.0953791
0.0921554
0.0916308
0.093516
0.0774358
0.0750591
0.112916
0.110981
0.112311
0.0591196
0.061928
0.0622533
0.138566
0.140806
0.139967
0.0678731
0.0200346
0.118033
0.112008
0.103742
0.1019
0.0826693
0.0848969
0.0463684
0.078927