/*--------------------------------*- C++ -*----------------------------------*\
  =========                 |
  \\      /  F ield         | OpenFOAM: The Open Source CFD Toolbox
   \\    /   O peration     | Website:  https://openfoam.org
    \\  /    A nd           | Version:  6
     \\/     M anipulation  |
\*---------------------------------------------------------------------------*/
FoamFile
{
    version     2.0;
    format      ascii;
    class       volScalarField;
    location    "400";
    object      p;
}
// * * * * * * * * * * * * * * * * * * * * * * * * * * * * * * * * * * * * * //

dimensions      [0 2 -2 0 0 0 0];

internalField   nonuniform List<scalar> 
29884
(
2.80507
0.0725375
0.828971
-2.35267
0.136759
2.76341
0.108456
-4.48472
-0.829454
1.36746
3.11036
0.947819
-0.973648
-2.40273
0.00941649
-1.97977
-0.329072
-2.22051
-4.46606
-2.97661
-3.49744
0.848786
0.583426
3.68867
-1.26963
1.443
-0.795569
-1.3347
0.632462
0.36
3.39347
2.94959
-0.774613
5.58062
2.12611
1.99144
0.817927
3.23587
2.01122
1.01226
0.760189
-1.43248
3.32514
5.33414
-3.32341
0.427957
-2.19953
2.1932
0.89253
2.73693
3.39179
-0.0144669
1.1779
-0.902677
-2.99269
4.34342
-2.68267
-1.65734
-3.7294
-0.606671
-0.31642
-0.802105
-0.00566267
1.32099
2.37869
-1.65109
1.38106
1.6089
0.714122
1.69459
-0.129157
-0.864443
8.17101
0.991304
0.478917
1.51752
-2.81196
-1.33462
-2.62424
0.922067
2.22864
-3.02551
-0.499885
2.35445
-0.230565
15.6063
0.976023
-0.671006
0.069456
19.4121
0.415368
-2.26162
15.4309
20.7691
2.97546
22.3399
1.47657
1.58993
0.346663
20.6671
1.84919
2.00773
0.0973779
0.491184
0.26349
-1.83827
18.7466
19.201
3.35948
1.59448
1.26419
22.4251
-0.14116
-0.268993
-0.232957
2.19566
2.68647
-0.155648
4.01852
3.45852
1.11977
2.56002
2.14071
2.99722
-0.39212
3.50736
1.13416
1.42067
-0.787175
3.25927
3.48432
3.13431
-4.31158
-2.2668
-0.241335
-0.658162
2.49304
0.260135
0.259948
0.521287
0.252749
3.2559
2.08968
-1.91343
-2.08247
-1.84203
-1.53776
2.72824
2.21197
2.40122
2.92021
16.941
18.3105
0.651391
0.569885
0.956058
0.493412
1.12138
0.82134
0.564592
0.91424
3.63159
3.80358
2.92636
25.8664
25.8462
-2.36754
-0.771013
1.32553
-5.56957
-2.54053
1.49874
1.5167
-0.37881
-0.244644
2.81878
3.1246
-2.61579
2.21189
1.7802
1.90776
5.51304
5.59714
4.93118
-0.0940705
-0.132587
1.51782
1.37886
1.27524
3.4616
0.460697
4.48759
5.07573
-0.028982
-0.114196
2.83943
2.89729
0.984611
0.212479
0.398922
0.504738
2.78687
2.73865
1.93453
2.79875
4.05731
0.093486
-0.348953
-0.433137
-0.817875
0.540356
-0.640549
-1.87492
-3.37195
-1.41195
11.7516
3.96364
14.7454
-0.208697
22.1736
22.4693
-9.28519
2.63424
0.413379
17.0582
22.5802
14.9561
21.9166
11.3321
-5.57441
5.08776
15.3361
13.6279
-7.66327
-7.68512
13.2895
13.4566
3.05171
-2.68107
-3.99034
-4.58867
21.942
12.7946
-7.3586
-4.29068
3.58008
15.1502
15.22
-5.40963
-6.15919
-5.13682
3.53222
3.3879
3.28122
23.0361
22.731
21.6769
22.0643
-6.60441
-6.22355
-0.552009
4.30392
-7.85602
19.5611
4.74596
16.0359
-7.02572
2.8238
2.36341
16.0157
3.34219
3.39007
21.4975
16.167
16.3186
18.0552
18.792
21.6418
21.3536
-5.72303
-1.26925
14.295
1.61642
3.40822
4.07048
3.61869
3.23522
-11.7105
26.0975
2.14131
22.5447
13.9131
13.7516
-6.68042
-11.2589
-11.3904
4.16948
13.9305
14.192
-6.67819
-5.11636
14.9569
14.9538
15.2221
21.4842
17.9569
16.8952
6.88911
3.47852
3.7948
3.72342
4.16512
21.3023
-6.25379
-6.9537
-10.9257
-5.98808
14.4236
-7.43333
-7.016
-6.89545
20.56
21.0734
21.3056
-11.8989
3.3729
20.582
21.1395
21.1839
21.5733
2.82122
2.23879
2.26234
2.2104
12.782
12.434
2.51929
-2.44475
22.494
22.448
-5.62832
-3.07718
22.3549
8.26595
0.243231
22.6958
22.248
22.4151
22.4622
19.9012
19.6054
20.5179
3.31533
3.33817
3.20537
21.0094
21.5897
21.685
21.7063
21.5956
20.358
19.4403
6.4947
0.743521
3.23214
2.96349
2.73789
2.67404
25.1227
23.2845
-5.18613
-5.03597
0.417455
0.57535
0.368428
4.43936
4.13581
-6.7558
-11.4946
-12.1569
-12.7117
12.1823
4.14048
4.08446
3.66467
-6.31048
-6.63117
-6.37892
-5.61034
16.8211
17.9652
18.9819
17.4676
-6.89958
-7.28473
-6.47055
13.068
13.4988
-4.27112
-4.6046
18.13
19.2533
16.6884
17.9819
17.109
16.8057
16.5938
3.31175
3.5227
2.29327
2.57381
11.8957
12.0582
22.4653
22.6187
22.854
20.0927
0.02653
11.8983
11.3336
12.7584
-3.97031
21.1376
20.9737
21.8596
20.0703
19.4962
19.2597
18.8398
21.2114
20.778
20.9257
20.3924
-3.73053
18.7401
19.6735
19.6284
19.9297
-3.52759
-3.59193
15.7168
15.5161
14.9403
15.0472
4.09501
3.69589
4.37666
-6.03325
-5.1918
-6.67338
-6.48523
-0.0959572
-1.24886
14.8997
14.6929
1.07296
1.14398
1.11864
1.36456
-1.44214
25.653
6.86421
6.12283
3.40279
-7.23666
-6.66958
-7.4495
-7.00208
16.7606
15.8053
16.1364
15.029
1.83869
1.70415
1.84641
1.19771
1.24138
1.08109
0.633781
0.868539
0.769235
3.91216
3.68174
3.77274
4.16947
-6.6995
-6.16094
-7.05057
-7.04665
4.16372
3.9115
3.92517
22.5055
22.744
22.5858
22.0465
4.47395
5.27557
4.69856
22.0612
25.6639
1.65266
25.343
11.2712
1.11364
1.08671
22.3043
21.9998
1.12832
1.15394
1.15942
1.61847
-5.10247
1.1917
-0.621402
22.5777
22.6816
2.62708
15.7723
0.252628
1.26756
-4.09475
-5.37711
-1.54985
-1.76233
20.4283
-3.38275
-3.80581
0.0023633
2.27429
-3.85769
-0.0236887
0.0143797
0.0456798
0.175962
-1.8265
3.17041
3.20022
-2.64479
-2.54174
-2.70547
-0.237751
-0.647643
1.49444
1.53587
1.34158
1.2877
4.8072
19.8857
2.26309
2.21398
-0.190557
1.41943
-0.500784
1.22003
1.29722
1.33058
25.495
1.68418
1.62318
-6.04304
-6.03633
-5.46927
-2.345
-6.22626
-4.64691
-0.469523
-0.386831
-0.447198
15.0556
14.2403
-2.9003
-2.58834
-2.08748
-1.63399
7.5637
-4.50785
-0.727516
-0.558768
-2.20878
-2.49287
25.1987
0.113438
-1.00593
14.8885
0.111208
0.433588
25.9803
19.0938
19.694
2.46821
1.36535
1.43581
-4.42881
2.95639
6.6705
7.43872
22.7817
22.6069
4.21804
4.72138
4.52755
1.29925
1.24731
20.4763
1.55681
3.82583
4.06425
2.1566
1.96232
1.81639
2.67651
5.9463
5.31725
6.47911
5.8314
3.06971
0.724181
1.90772
-0.520856
2.02307
0.543366
0.684512
0.840912
-3.22206
-4.16192
-1.25455
0.134898
-0.242902
-0.741835
9.71038
10.9847
19.9568
20.3751
20.7756
21.99
1.09819
3.3188
3.10721
0.784482
1.43317
17.8074
17.1204
-3.42062
-3.67615
-2.95533
2.28343
1.18271
3.37923
3.725
7.11556
3.91936
4.58671
-8.09028
-7.80099
1.38896
1.55839
1.36492
1.59342
-2.5034
13.2222
12.474
11.6464
1.88948
1.98959
2.10613
2.06874
2.2144
1.24443
3.02287
3.18543
-3.26214
-3.13429
-2.81192
-2.03702
-2.28435
-2.51643
-1.27746
0.650604
-1.88294
13.3646
12.4446
11.2767
20.2549
20.1036
5.23087
5.72522
20.2177
20.474
-0.369912
-0.862837
-0.10449
14.0263
14.5272
7.98569
7.23739
23.2968
10.2284
-4.32694
5.71824
4.26108
5.09462
23.5104
4.0539
-15.807
-3.931
-12.5924
2.16342
23.0229
-7.47892
-12.7349
15.7213
-14.5621
-6.07666
-6.63548
4.00836
3.9194
4.09314
2.12755
1.21616
5.4699
-3.16918
-3.53238
-12.2484
5.24295
4.94773
-0.605821
-0.806947
0.0284058
1.5787
0.133673
-0.198758
16.0695
3.58843
5.07024
-3.40166
24.9507
11.2236
10.7766
23.7603
-12.4925
5.82358
-8.37846
-14.4915
24.2278
3.11861
2.52938
2.69432
17.0065
-12.7396
-11.8666
4.28677
-2.51804
-1.91534
0.683834
0.689389
-3.381
3.50216
8.57012
-6.88319
3.58692
16.4037
16.3951
1.73008
1.56298
-13.6289
1.44352
16.9145
-2.98633
-12.8616
2.45698
3.23826
5.52341
-36.969
1.16597
2.23939
4.09205
11.3952
11.3881
5.38743
-2.01464
-2.57992
-2.90344
-34.386
2.65633
-6.8989
-6.56998
23.1169
2.74543
1.94083
23.1861
22.977
-8.33537
-8.15759
3.81652
-11.7079
15.2933
2.54306
2.26648
2.76786
-4.94028
15.343
2.04969
1.63852
-4.36286
-3.15865
-2.31619
-11.8717
25.7645
9.46771
-8.22214
5.6431
5.28012
10.4714
10.6424
-3.53512
-3.22072
-14.5601
-27.1832
-3.70403
-6.4823
-4.51672
14.2054
0.0734162
-12.7497
21.0703
-19.3947
3.50189
-6.60254
-6.89492
3.26375
3.29612
0.0181576
12.0255
4.18394
-22.128
-8.96644
-9.05804
3.59006
-9.40963
-1.89068
-0.0754527
-12.2786
-12.2599
5.43027
17.7398
18.0589
0.9478
1.89593
4.97527
10.0412
10.0825
-0.80833
5.83753
-1.08516
-0.934017
-1.76561
3.82366
2.08506
2.16353
7.98352
8.9589
15.0191
22.7419
22.9778
22.9019
-0.983912
1.63168
-4.49803
14.9922
15.1006
8.59797
3.20991
9.41173
23.5619
11.3464
10.9017
-3.1372
2.49335
-1.6229
11.5719
11.8605
-0.179095
3.29124
-14.3277
4.24987
-13.8974
5.14101
4.59669
15.6947
1.4321
-19.9845
3.27299
-13.3393
0.966852
2.11446
9.67206
10.2469
9.74789
5.17561
4.61185
3.66568
-12.7082
-12.8837
11.2378
3.58301
3.38409
3.44826
2.83676
2.57288
3.82457
-4.59345
-4.93902
-21.62
-2.92195
-2.25268
-2.40608
6.4711
6.20203
5.05652
5.42104
-2.0558
-2.27889
-7.32745
6.48223
1.45105
1.23333
-9.99154
6.15497
-24.6357
10.7294
-13.9779
-13.9529
-22.0299
3.74854
-11.5818
3.45756
3.65659
-10.4006
-8.02449
2.02775
12.5069
-19.7714
6.42121
6.81724
-14.6317
10.7301
-4.92277
25.1696
3.24981
3.77411
3.70371
3.31372
3.47697
3.08207
3.21345
2.98975
4.63628
-10.2798
-9.54
5.51125
4.82314
4.39337
0.578367
2.06117
1.93375
1.90987
-5.76762
-6.44648
3.96275
4.01601
-0.46632
-6.74869
-7
2.55668
2.79279
24.8896
-9.15064
-8.37624
-1.7583
22.2103
1.4005
1.63212
-7.10134
-6.36274
1.28852
1.73843
2.45716
12.1186
12.4257
-12.7053
-1.56254
3.11532
-13.7157
-13.5634
-13.6059
16.5972
16.4019
-7.81113
2.38126
-12.4054
-12.7086
5.70412
5.22039
-12.2299
-12.2422
-12.2547
10.1206
10.2837
-5.50255
-13.8527
0.782562
6.13934
-11.1696
-11.5252
19.295
-8.18027
-3.87184
-5.51843
5.31825
23.6191
-1.14174
-1.64342
2.8527
2.23378
-11.9741
-7.5032
-7.12795
-7.2869
-6.58891
3.62702
3.68824
3.44254
-11.0589
-10.588
15.006
-4.94319
-4.89122
1.96148
-10.8222
-10.1048
-3.14916
-2.74284
3.54479
9.82226
9.94859
-9.29876
-9.65886
3.6817
4.00547
3.79842
4.52022
5.00831
10.2077
5.77197
19.9939
-12.0256
-12.2964
-12.6092
-12.3773
-7.57453
-8.22591
-14.6963
-14.1959
-0.578684
-0.629109
-0.672898
0.291489
-1.13018
-2.18237
-2.30832
23.4213
15.6134
-5.98147
2.79573
2.54383
2.35151
11.9302
2.0403
2.35749
2.32643
1.97766
2.6608
2.64329
2.16086
2.77263
10.4751
10.0597
10.3766
11.3452
1.37254
1.03874
13.6121
3.42566
3.41277
3.37062
-0.125501
3.71229
18.5954
-5.60922
-4.90973
15.4475
15.6831
11.1281
0.180118
-1.25619
-1.3129
2.72309
1.52801
1.66917
-0.712797
3.2188
10.5214
10.5708
10.5722
-3.91959
-4.38041
-3.60757
3.26055
10.3172
4.76598
3.81836
-1.33784
22.7462
5.99594
5.79477
5.63175
-5.56835
19.722
-11.5241
11.9687
12.0611
24.6879
26.0358
2.31967
-0.937831
3.43044
-3.24715
-2.94485
2.73551
10.6629
2.95743
5.44113
-12.9582
2.93682
3.18449
3.22257
15.3791
2.94122
3.0629
2.92739
3.64428
4.41325
24.3381
13.0877
13.1024
-1.63579
-1.2047
-1.2044
19.6221
22.9892
3.66737
15.6935
15.9634
12.7006
12.2571
12.2558
12.4871
3.63982
15.7333
15.9847
-14.1046
24.6618
4.00108
4.38228
2.84539
2.91168
4.68677
1.15223
2.01969
1.86413
3.30283
3.35659
-13.5365
3.30111
3.43741
3.55036
0.59342
1.07344
6.53205
4.47806
6.27004
1.63617
19.1808
23.0562
1.07041
24.8751
-7.8443
3.75506
11.3199
-5.68069
13.87
14.1443
10.9587
11.3872
3.71481
3.33806
1.86654
1.89554
1.8479
2.58842
2.7325
2.59435
5.26938
5.30687
21.8586
22.3624
25.1111
-0.909473
-9.3702
3.19301
3.39503
3.35413
3.8091
3.42472
11.4898
11.1325
1.73951
1.68666
-0.716931
2.87171
2.77722
2.51182
12.0814
0.450365
3.34889
3.20122
4.1225
3.8159
-11.9698
-12.0688
-11.4979
25.1592
15.0712
14.5373
15.5175
15.8034
5.25064
5.08403
21.3728
3.39925
3.3719
5.31473
-10.2454
-10.1676
-9.2128
10.4321
10.2907
10.1281
-12.8252
-13.1238
0.699745
-11.5061
14.5368
14.3646
11.0059
11.0033
3.47669
3.55585
3.42556
3.46931
4.84207
4.78098
11.4612
-9.75324
-10.7918
-10.6385
4.59506
4.38742
26.0499
13.659
13.5275
-5.12012
-5.50469
25.4597
20.3244
20.7181
23.1445
23.2077
-3.62696
-4.19005
-10.7587
-9.6799
-12.6432
-12.5988
22.8123
-11.063
-11.6252
-11.3361
-9.84882
-10.1958
-9.32933
-8.42024
25.5731
25.6595
20.862
20.5004
25.3518
18.6698
15.6395
15.3104
15.9787
-5.67467
24.2031
3.55611
3.4369
3.50294
3.77125
3.64652
3.67046
0.716643
1.07509
1.07487
1.80172
5.14765
-11.0592
-10.7945
-10.5221
11.0106
10.1099
10.6581
1.34868
1.18965
0.840014
3.37833
3.35354
3.36693
6.38317
3.68606
4.02289
4.5838
2.30102
2.4674
-12.3741
4.33173
3.51457
3.64251
25.6317
25.4857
3.70034
3.65725
3.58089
3.74865
-8.32185
3.04711
2.91789
2.04684
3.59635
3.82677
3.85564
3.84521
0.215133
0.52269
0.4631
-1.91761
-6.41893
-13.4438
-13.126
-13.4982
-13.1729
18.661
17.923
0.787951
1.48252
3.93755
3.15462
-16.6475
8.41846
-7.2257
-7.80853
-5.1392
25.8696
-13.9842
-12.862
3.85936
4.54795
3.1527
3.12986
3.1646
19.7875
-3.47245
-3.0765
-2.45989
-10.0463
-10.6988
-10.9237
-13.0197
-13.0501
-12.9148
-5.09655
-5.66049
12.5819
12.3562
2.00504
2.08382
2.46174
25.8134
20.6822
21.8724
10.9772
-10.627
-10.349
-9.67626
-10.2084
-12.1559
11.6947
11.8791
11.2536
-4.97917
-4.53006
-4.48163
-4.05542
-12.8901
-12.6124
-13.4878
-13.3052
22.7445
23.1002
22.7011
22.6535
-9.22274
-8.31878
-8.89493
-7.45338
13.2127
-8.25538
3.71696
3.61386
3.47635
3.45884
-1.3112
-0.929448
-1.1328
-5.91653
-11.6601
-10.8628
-11.3114
0.733721
1.05774
1.43288
3.80908
3.79932
3.6054
0.697436
0.338446
11.6619
12.1244
11.713
11.0734
2.86301
2.60014
2.56119
2.41143
-11.8706
-12.8797
-12.7836
-0.325962
-1.11298
3.05044
3.45325
2.92412
-11.5575
-12.092
2.05229
2.15774
1.61968
2.17599
1.02542
1.70056
3.21718
2.8734
3.19982
-4.42327
-4.24801
-7.71688
-8.57635
-8.03453
-8.74108
11.8928
11.8928
0.96201
13.5513
13.3433
15.0722
3.2384
3.33744
3.37472
3.37605
16.0926
-2.63937
-1.91747
-1.72532
-1.03299
2.96435
2.61663
10.9919
10.9605
11.0295
11.4861
-1.63083
-1.13202
-1.86833
-8.82052
-9.06165
-9.61009
12.757
12.4589
13.3467
13.2811
-7.06175
4.67487
11.9529
-5.40164
-5.69321
-4.15823
-4.868
-27.315
5.40809
-27.165
-26.9955
3.72071
3.85128
3.66357
3.56427
1.42744
12.5809
12.9467
3.28647
3.18325
3.46581
-0.136331
-0.523659
-13.1409
-12.9242
-13.2313
-10.3176
-10.507
-10.1916
-9.27325
13.9896
5.04527
5.6398
-6.67843
-7.11969
11.1899
11.5513
11.639
13.4806
-1.04158
4.26145
2.42785
2.18435
2.3926
0.858436
-6.63843
-6.93279
-6.14125
1.67342
1.57577
1.3155
14.3074
14.4674
3.20798
2.80573
-8.97041
-8.26683
-9.05506
6.40828
6.33392
3.90844
-9.45726
-9.63502
-8.94707
-10.2885
-10.7549
18.5563
18.0456
18.3247
-3.64115
10.6181
10.6183
-1.13092
-1.10504
-0.0765678
1.87505
1.24357
-12.2995
-12.4293
3.67439
3.58578
14.3225
13.8158
4.30053
4.13468
3.31619
3.14375
3.89162
3.90043
3.55848
3.22871
3.34665
3.41062
18.4008
18.1999
0.57676
0.145023
-0.325496
0.0724565
2.23
14.8155
14.9311
14.6297
22.9272
23.0556
22.6903
23.0632
15.8632
14.1663
14.4707
14.1588
2.98109
2.72705
13.1209
13.1146
2.94749
3.17925
3.43644
6.04309
5.67584
-12.5573
-12.928
-12.1295
-12.0722
15.8058
3.52829
3.53633
15.2076
14.9659
14.4924
14.7169
1.41138
1.55962
1.17836
-7.72229
-8.19967
-7.57556
4.01608
4.43936
3.78817
11.6094
11.6331
14.4684
14.5452
-2.70816
-2.4832
-2.31231
11.0522
-11.7648
-11.5491
-11.0135
2.89606
-4.99881
-5.64499
-5.58745
-5.92754
-0.754346
-1.22615
-0.281561
-0.588784
3.53801
-12.304
-11.9901
-11.518
-11.7101
2.37331
3.47889
3.40875
3.43201
3.40607
3.42504
3.3993
3.43823
3.3748
23.5045
13.6335
13.8993
-12.11
-12.1657
22.2396
-8.48768
3.50673
3.09338
-0.625677
-0.442368
0.854352
0.45216
0.878497
-11.5793
-11.3545
-23.5377
-22.8394
9.62245
9.79915
10.61
11.051
4.77362
3.80597
3.78545
3.84048
-27.7781
10.8332
11.0248
9.64846
9.72217
-6.93217
-6.73208
-6.14319
-5.81041
3.20181
3.23115
3.16455
4.88301
-12.4296
-12.2865
-12.9363
-12.6826
-7.47435
-6.94316
-11.4764
4.10653
3.93075
4.96732
12.3444
11.7833
12.401
12.2474
6.12323
6.80846
-2.63963
-1.58268
-1.01354
-0.956959
13.2768
14.4882
14.3663
-6.99971
-10.4745
-11.3374
14.4816
14.4826
4.71414
4.92634
4.89942
3.18292
3.2146
3.18716
-7.7472
-7.94705
-7.9859
11.2509
10.9717
10.976
11.3294
22.6853
11.8224
12.3423
10.9466
11.5658
-5.3806
-5.50244
-5.45963
-5.62456
-0.858293
-0.850826
0.244251
0.361184
3.58127
3.75007
3.66554
3.49189
3.57797
-0.379015
0.821195
0.244255
15.6996
3.75071
3.69493
3.69462
-0.471234
0.0432973
-11.856
-11.5681
-11.5199
-11.1163
-10.4655
-10.9907
5.37301
23.4802
5.4766
22.0102
22.1049
4.32762
3.97962
4.30063
-6.95413
-7.06676
-7.54105
0.568459
-12.2495
-12.779
-13.0775
15.8436
15.9297
3.6002
3.52058
3.36255
3.51203
3.76472
3.86407
21.9338
22.0477
3.48437
3.40946
3.53365
3.62935
2.8022
3.12581
15.2217
4.07153
3.98628
4.01648
2.06619
2.26124
2.0419
-23.2602
-8.96587
-9.77696
-10.4869
-10.0412
14.9284
14.6829
14.5843
14.8265
-4.0113
-4.85778
-4.51672
-7.72199
-9.40179
-11.384
-8.54552
-19.061
2.8622
2.81311
-1.40486
-1.05326
-4.54622
-5.11288
-4.14352
-3.53799
3.83772
3.86651
3.4107
3.82793
15.7999
11.3956
11.1066
11.608
-8.4358
-7.99626
-7.94751
-8.4204
-8.22732
-7.21317
-8.87015
-8.84979
-7.88306
-6.20006
-5.84536
-5.83837
-4.93359
10.8442
10.8312
0.488552
0.447575
-11.1377
-11.4352
-11.3777
-11.5622
1.01373
-7.50004
-6.87146
-7.82433
-7.38555
2.58287
2.85331
2.80858
23.3261
18.3682
-8.35618
-7.8473
-7.49058
-6.8462
4.22205
4.3418
-14.5954
-15.0863
5.2398
19.3942
3.45451
3.49652
3.15741
-6.90821
4.9174
4.87627
4.8063
-6.18001
-8.08315
15.6055
-6.82616
-7.72595
-7.20978
-8.87926
2.83341
2.99336
2.78997
21.8739
21.8013
26.1113
-0.932998
13.487
2.92911
3.11792
2.41394
2.85945
-0.113348
0.251591
1.11736
0.954024
3.19462
3.30995
3.55738
3.34693
-7.75716
-7.14148
-6.33105
-6.84796
1.97442
1.99621
3.27276
2.34699
-5.62328
-5.22123
-6.0436
-9.065
23.6469
-3.17085
-11.9821
-11.4648
0.967248
0.927054
20.7128
-8.11064
3.40029
3.47613
3.37561
16.1126
3.17833
2.89147
3.37079
3.6733
3.26302
1.09471
0.73592
1.7534
1.98417
22.1579
22.3144
21.6248
21.9178
3.58426
3.6403
3.47443
3.34789
2.5084
2.42583
2.26845
2.52186
3.65453
3.94448
4.13138
3.86857
16.0578
15.8565
15.3064
15.5026
15.2617
15.1876
-8.21483
-7.45801
-9.20938
-9.02829
-0.0376352
-0.0393022
-0.431232
5.65091
-13.6685
-14.1445
-13.3968
-9.51558
-9.26808
-8.1918
-9.3902
-10.5217
-10.3811
-11.0221
-8.86694
1.97948
1.47782
26.1187
13.8306
13.5284
13.4079
13.2205
-11.5136
-10.636
-9.98813
1.34284
-6.01484
-5.76608
-6.08579
-13.0328
-13.341
2.47047
-13.1705
-12.8996
0.646009
0.235464
-0.851638
-8.20396
-7.445
-6.6698
-7.60705
-13.2317
-12.9405
-12.7057
7.71467
6.51773
-4.1192
-3.29603
-4.03153
26.1214
-6.63225
-6.43084
0.978925
0.929697
3.40169
4.24063
4.17227
4.26037
-6.72737
-5.71889
21.6059
21.7845
0.808503
1.33058
13.2325
13.3508
13.0345
13.2169
-4.18503
-12.7564
-12.8131
5.84554
6.07112
5.31917
5.8776
3.16667
3.17862
3.24519
3.19179
3.00957
3.10573
3.16787
3.11484
2.39404
2.48697
2.3464
-8.81015
-8.55307
-7.67937
-7.97716
-13.2634
-13.3721
13.2369
-11.1364
-10.953
-11.0905
4.91326
13.7033
14.0298
14.0761
2.28453
2.11548
2.91762
2.99032
2.92614
3.07225
-14.1154
-13.1654
3.5745
3.58029
3.33229
3.36147
1.76034
2.33516
2.35888
2.72712
12.7421
13.0793
13.1326
12.8152
-12.2735
-12.0135
-12.2712
15.0219
14.7548
14.1537
14.3271
4.9476
4.95129
4.81993
19.1682
3.47642
3.40576
3.51359
3.45509
-17.1476
-18.4932
-23.5819
25.159
-3.73572
25.2996
25.4926
25.573
23.6611
-15.9854
19.348
20.8744
20.9699
20.1143
26.1157
16.5272
25.8164
25.8498
25.1442
25.1998
-14.7461
18.2009
18.1594
0.740687
24.34
-5.72728
17.4601
23.818
23.8323
-10.1752
21.2355
3.17005
24.9361
20.4972
20.3872
22.1092
-1.43805
0.214605
16.7405
16.4566
-16.8312
25.2369
1.02752
2.35223
-1.15075
5.93081
6.9069
-7.34408
25.8866
18.7313
25.9649
25.9465
25.9036
-8.05446
-8.44519
25.7029
-8.36589
21.2493
21.0551
23.2684
21.791
-4.3663
-17.9904
0.699662
0.821743
26.1521
-20.3871
-20.8893
17.6731
-22.8175
17.2168
17.2061
17.1986
2.85636
2.82161
25.6807
-0.0995681
1.60851
1.81979
-21.2853
19.6467
19.6182
25.8355
4.54873
24.1442
18.0564
25.9265
17.7793
23.479
3.02481
21.0441
19.8263
19.8937
0.8552
6.7758
19.3553
17.9828
23.4707
25.4206
2.50256
16.8267
25.7251
23.434
23.4786
25.556
24.7441
24.6725
24.1438
24.547
24.365
16.8804
16.6376
23.5232
20.9089
24.3876
15.3624
1.07562
24.8175
11.6963
17.6223
-1.53006
21.821
24.0312
24.2009
24.2598
5.80229
16.601
16.5246
-29.2383
26.0095
26.0149
21.1241
-0.839903
-0.684315
-21.919
24.2107
-24.0386
-23.3761
21.6843
11.5324
11.7846
-1.59245
12.2683
0.414326
0.353652
18.6598
18.5085
23.4784
-0.331312
-0.701108
23.6316
22.7793
4.38158
16.4163
25.416
19.5554
15.4521
18.4947
16.6123
-13.2144
-13.7126
-13.3233
25.7029
19.9052
-13.555
-13.8978
4.54681
4.57255
-7.14776
-5.45102
-5.05453
1.0964
25.2378
24.9186
-1.32786
1.61206
20.2145
19.9494
20.2821
25.5682
25.5047
20.0284
19.705
24.1776
25.6081
19.8644
19.5209
24.919
24.8545
24.0608
24.0661
5.29833
19.6062
19.2315
23.7234
22.8079
21.9353
22.2791
25.904
16.5402
16.6912
23.8275
23.7625
20.152
24.6292
18.8498
18.6067
2.02385
19.2025
2.75958
2.68669
2.64357
-13.8875
-3.39026
24.6616
-9.98797
20.4274
2.56469
16.4713
25.7067
23.2983
23.1497
23.2062
25.0432
24.4105
1.25861
10.2445
9.55711
19.4573
19.7321
-0.964166
2.64361
-2.63985
-2.49346
24.1323
18.0906
0.555147
16.4506
16.6053
22.4514
23.7946
-24.5127
8.07829
7.42163
19.35
-4.18953
23.2008
22.9865
23.027
25.8378
-4.74832
-5.22733
-4.99551
13.7751
23.6843
-1.04319
-1.26632
3.71828
0.622932
-21.9417
14.8477
16.1811
2.7496
0.978715
0.816745
17.0399
2.01512
25.915
25.8732
25.2121
23.4403
-25.7407
23.1457
23.2071
23.2715
23.3306
18.9284
21.4481
21.6229
-1.90609
-6.51777
22.221
8.89008
3.66803
3.68159
15.3993
2.65968
2.58739
-3.12321
-3.48933
25.4555
-22.3675
-0.9255
-1.31603
19.7589
19.9687
16.0823
16.2663
2.88712
2.87969
0.155556
-0.200823
23.0527
-11.5678
-11.1398
1.3434
23.4947
23.4625
7.74801
24.1221
23.6456
18.3445
24.5319
16.7468
20.1995
-1.71165
22.6907
22.475
-17.9611
4.94794
16.8235
-17.9363
7.91454
8.62812
7.82854
-18.0605
2.1128
5.13291
-4.60209
15.8695
25.4452
23.4303
20.283
20.0323
-1.88841
23.5963
23.6215
17.4587
-4.84427
-4.22285
-3.50748
17.0552
15.2038
15.2263
2.69277
2.78868
-14.3185
22.1099
22.0286
22.4086
21.8421
-1.3767
-1.2717
3.73807
3.41171
-1.24235
-0.988765
2.5796
25.4238
25.4727
3.65645
24.7985
-6.22293
2.23896
2.30033
2.47872
-13.5009
-13.2192
-13.5374
-0.0142618
-3.89826
-4.40327
3.39861
2.53248
2.57922
0.487195
2.78886
-4.60901
-4.61842
24.8374
24.8071
-0.724542
17.0299
-13.5963
-13.5943
-13.2057
-2.12767
18.807
19.155
18.5477
9.39144
25.358
17.4142
17.4412
1.20833
1.23144
1.40767
16.6336
16.5008
25.2317
2.13668
18.2883
9.37181
21.0715
21.0579
20.5884
1.28534
1.9555
-11.0576
-11.2115
-4.26888
-4.7196
21.5884
21.4927
1.66523
18.0641
20.0406
25.1174
-0.274188
-0.823509
1.00248
-4.69439
0.909485
1.96114
1.82477
24.7921
17.0903
2.99257
2.87236
2.29548
2.7221
-3.56384
-3.09248
4.86829
4.74195
8.29984
9.10716
25.8771
0.911454
0.482823
-2.5855
0.474232
0.535541
0.539764
-1.03141
-0.905924
0.942924
0.856064
0.623846
-1.06435
16.8229
16.6979
16.3666
-5.56729
-5.83427
-6.52275
-1.38184
-1.3735
-6.02247
-12.8084
-13.3619
-1.93932
-1.691
0.476861
0.303544
16.2623
20.162
22.9966
21.6285
4.19545
-8.22795
-8.44295
-8.25861
2.50011
21.8119
21.5774
-2.35943
-1.93417
18.1609
24.4517
19.4608
19.2515
25.5209
16.1004
16.2671
16.0409
0.984896
0.930048
17.972
25.1895
25.1414
25.4314
25.4068
7.78825
9.08483
-5.35864
-4.35332
-7.23162
1.66338
-9.4129
-8.7683
-5.05672
-4.86362
-5.24221
-3.75057
-3.68022
-6.17064
-6.42579
17.8888
17.7125
0.834554
0.919672
-0.562884
-5.87003
16.4647
25.1531
15.9179
25.145
18.8853
19.1676
19.1358
25.4739
-3.59846
-3.66059
-3.91874
-3.99618
-4.03792
1.06797
1.14867
-13.347
-13.7924
15.8223
7.17502
18.3453
18.6731
7.45238
18.2245
-8.89717
0.244482
24.5142
24.3155
-1.10773
-1.07489
16.6353
-8.76152
-8.73353
25.4977
-4.48405
-3.70679
-4.48279
12.8994
12.8831
1.08098
23.1112
22.5387
12.9313
12.9982
20.618
20.5325
20.3042
3.12359
3.14564
3.13163
-2.20066
-1.17207
-1.36801
3.00682
2.78009
3.00063
3.59308
3.75478
16.1398
15.9599
16.0145
0.494864
2.26541
24.8969
1.17219
1.17788
1.21472
2.03111
-11.5921
19.1437
19.7671
19.4041
20.0778
0.271799
11.9233
11.7943
21.7329
21.327
12.5484
5.2729
15.9438
15.4477
14.9721
23.8869
23.7822
1.18744
0.927161
-2.72593
2.05091
3.57857
-5.79001
2.55597
23.5239
25.6539
25.6012
2.22015
23.1069
1.86159
-24.0009
16.2644
16.2662
16.0815
20.5243
20.6505
5.12619
-7.80222
-7.47538
-7.70965
-0.447467
23.6367
22.4321
21.6022
1.99343
0.993355
2.8477
3.0341
12.2011
-0.939042
-1.85594
24.5631
24.5593
22.8031
22.9081
22.6805
-0.974313
24.4249
24.4018
1.16426
0.416842
11.4703
22.8642
22.8241
15.6515
1.24215
4.21494
3.99587
15.3373
4.00837
12.3203
20.466
12.6489
13.34
22.5379
-0.951277
20.2122
-3.313
25.6123
14.8229
15.0437
25.7829
25.8006
25.8307
25.5714
20.1808
2.1252
23.0567
23.2165
-14.0289
15.7836
1.41956
0.689852
1.40631
1.31052
1.45379
1.87075
3.46443
3.43645
2.79218
2.56329
2.41339
16.3231
16.2655
1.52763
1.38505
-8.42683
-8.60174
-8.66109
-1.7341
-1.61355
1.82351
1.8835
0.187115
9.858
10.8175
11.4608
11.0844
2.22885
2.43993
-7.83428
0.811651
0.348377
1.07824
1.05411
22.648
5.63979
18.2197
17.7396
-0.066049
16.6129
-11.4117
25.2782
1.18704
-1.83216
3.48347
3.75112
-5.97995
-6.16019
-5.78799
21.5351
15.6451
16.3643
16.973
2.05317
1.801
1.63333
23.4371
13.5628
13.578
13.5765
13.2076
3.40692
3.18738
3.12652
-2.64508
14.1745
14.0372
14.2015
12.2896
12.2949
25.6554
1.46049
1.86358
1.60169
-11.9019
-11.8374
-8.79949
-7.76458
3.09003
3.24712
15.954
15.6492
3.48969
3.56115
15.5094
15.2315
15.1748
-3.32015
-2.93206
3.43553
3.38013
16.7442
16.7593
0.186703
-10.2196
-10.5909
2.21949
2.00811
2.39397
-11.4671
-11.7127
1.02741
0.979057
14.5973
14.7669
14.7664
-9.995
-9.88084
-0.173729
0.0299519
-0.536627
-4.54825
-4.3626
-11.4839
-11.7167
18.6114
1.95451
1.81896
-14.3252
4.84378
5.16161
17.5257
21.181
20.7437
13.4216
13.6919
23.3637
1.80011
0.338699
0.0641076
0.714548
0.882112
17.57
3.52438
0.124803
-12.0015
10.5748
11.1189
-7.42964
-7.20531
25.1585
1.73886
5.91242
5.88335
4.57797
-6.37042
11.0116
10.5877
-14.0888
20.5307
20.2025
22.5232
14.9827
15.1857
1.71931
-7.87913
-8.1641
3.85634
12.8778
12.6534
12.8018
19.9688
20.4524
20.6112
22.0354
22.12
-3.88059
22.3277
22.2057
14.8003
15.3351
15.2133
25.3707
25.4277
3.43582
3.41682
3.3887
1.72161
1.10859
21.3334
21.7828
21.4839
25.7403
-5.91762
3.42717
3.35246
3.31271
3.30608
17.1285
4.77882
4.07693
4.16665
-7.46501
-3.15467
-2.02892
-7.65413
-7.88043
-0.167924
-0.126771
-4.39768
-3.84488
-12.5096
-12.1745
-12.8957
1.33275
12.6654
13.0147
-0.68029
-0.617504
-0.253363
15.4916
15.4158
15.3741
-1.01702
-0.915976
-1.16008
-14.542
-26.2671
4.95334
5.05444
-11.3288
-11.0712
3.54489
3.7344
15.903
-12.7884
-12.9702
3.60843
3.55765
3.18032
3.17609
6.37756
6.95856
7.98326
15.6161
15.6684
-10.162
15.7425
15.8358
1.36418
1.08476
1.506
1.66197
1.03043
-3.85654
-3.09197
-3.49001
7.7005
8.49904
9.92536
9.39105
16.3529
16.5094
-1.37569
-1.48914
3.29903
3.34714
23.4464
25.6754
14.3428
14.1523
16.8656
-4.46396
-4.42915
-4.4497
2.00938
24.92
17.4927
17.5964
2.79786
2.67051
21.5766
21.593
-12.5858
-12.4378
4.17796
3.74945
3.67162
16.1413
16.3124
4.39465
4.81754
14.4255
14.5699
22.9791
22.8052
-22.3826
0.0486494
3.27288
3.30229
-2.86364
-4.9102
20.9598
-10.847
0.800956
-4.50172
-4.68283
1.15107
1.68307
-6.3013
-6.63462
-0.308523
-0.233002
-0.682263
2.92113
3.15601
0.490813
1.04073
0.786871
22.2171
20.698
25.8569
22.3533
22.4337
21.889
22.3513
1.28351
1.80276
1.34475
0.0316044
0.0169065
3.26196
0.558961
0.345537
0.237804
0.702154
0.694268
14.6557
21.6926
4.34699
11.8547
11.5131
-11.4033
5.62999
2.13284
5.77603
-16.7456
7.225
-10.7634
-12.119
-10.4183
4.2084
5.28907
6.25007
4.94293
-10.6589
-20.0258
-7.3284
5.89872
5.76574
6.52164
6.82849
7.65776
-4.99994
-1.57618
3.8547
4.26722
8.26324
4.07863
-10.326
-10.2284
6.2388
6.56261
4.07294
-10.3952
-14.7819
-10.0469
6.84229
-7.69653
0.556582
7.50932
6.75224
3.0146
3.09403
-3.51328
-4.10763
-8.85027
-10.9207
-10.5051
2.6332
1.92516
6.94273
7.1801
3.81133
3.62527
12.9021
-5.02502
11.8787
5.9744
-1.20579
-0.0153663
8.88527
4.76824
5.91518
3.76382
7.81997
13.8809
5.03244
7.23825
5.76533
3.39685
6.87207
4.20009
5.09632
5.95673
5.53672
-12.3545
-12.2484
-0.642759
1.70596
-16.5859
6.39126
-5.46726
-5.41767
7.91156
1.9598
11.4442
1.42364
0.816811
-13.3751
-10.3087
-4.52015
-5.40334
2.88566
-10.1846
-10.2199
3.99105
1.4376
2.3804
3.00925
1.32088
2.28074
9.82212
-3.65242
-0.290306
0.257592
-10.0837
22.6443
-0.504156
-30.0311
-14.5748
-17.4865
3.77011
-7.46921
-8.71402
11.1861
10.0456
-3.35366
9.72007
-19.9216
-4.39867
3.107
3.05054
1.67103
1.31739
-11.6464
0.838913
4.10119
-4.14142
6.16352
1.30616
0.544585
-13.034
14.375
4.21613
10.0268
5.73601
5.57869
-14.0388
-11.3905
5.69906
-12.6868
-9.1295
12.7676
12.9513
11.0033
12.0129
-10.0351
2.35156
3.02031
2.43061
5.58338
5.52513
8.42667
7.82908
8.25399
4.31917
11.3314
6.06751
-2.59809
1.12888
1.28815
0.306013
-12.721
9.67005
-2.06807
3.93686
4.156
-9.95633
-15.6784
23.4045
-11.454
-12.4244
15.2699
7.07789
0.20108
3.10356
-3.32589
-3.92077
3.04939
8.07248
2.79617
-15.7618
5.64427
3.06817
0.390004
0.601776
9.74539
9.81535
-9.55369
2.89711
-4.84552
-4.47903
3.46125
-1.20928
-14.452
8.29854
1.59868
2.04821
9.24048
9.31054
5.86631
6.12751
-0.0425897
0.271409
1.53438
0.83428
0.516044
14.0745
-0.221732
14.9478
14.8184
15.1286
-4.93572
-5.47873
-6.74236
6.87797
-2.66802
8.60654
-2.44951
-1.54101
-3.06278
2.17744
-17.8321
-1.08975
6.98953
8.00882
7.76199
12.6444
12.06
11.7084
7.2395
7.03074
-11.3585
5.61873
11.2547
10.598
-4.93226
-30.7214
7.51055
-16.7882
-12.6419
3.53463
4.07932
3.26338
3.23157
-10.7406
5.16256
1.11155
1.37856
11.514
10.7694
3.50736
-2.00351
-2.53213
2.40429
2.73692
-10.585
-9.77061
3.03119
2.36166
8.34102
8.23935
8.08084
4.42138
4.94842
7.26488
5.85415
5.80514
6.64515
6.48273
6.02825
5.65851
6.67238
7.36712
3.93503
3.56828
3.74797
-3.1656
9.65775
6.09288
6.44939
7.56837
-4.85567
14.4527
1.90908
2.16193
-15.083
-0.0128748
0.292244
-0.377073
-14.1932
-13.9789
-2.19595
3.70043
3.1482
-0.551714
0.178066
12.5373
7.29252
3.2283
3.84644
-0.279511
-20.7795
7.52508
8.68649
8.74681
6.7024
6.83859
-0.61347
0.762984
0.230699
1.25684
1.62261
4.81352
12.145
11.3508
4.93459
12.2753
12.88
12.715
8.87241
9.01569
4.64173
9.75505
4.58924
5.06324
1.6563
2.43744
6.69926
5.77564
3.28541
3.69711
8.97219
9.86251
-4.03495
2.86426
2.49821
2.63198
5.32587
-14.9594
-6.09072
5.10276
5.7921
2.4379
2.6395
2.06016
6.37159
8.77276
8.7625
22.5605
22.5604
22.7767
9.86972
10.3022
10.0159
9.0234
7.29095
10.1193
10.8933
3.04345
-11.6134
-12.1072
-4.80213
-4.59662
-0.59031
-1.74477
14.8767
4.43673
4.17017
16.006
-8.10364
-7.51925
-8.46334
16.982
15.0836
15.2416
15.2505
23.3657
5.2518
3.66033
6.26821
-11.5431
-11.6924
-7.89769