/*--------------------------------*- C++ -*----------------------------------*\
  =========                 |
  \\      /  F ield         | OpenFOAM: The Open Source CFD Toolbox
   \\    /   O peration     | Website:  https://openfoam.org
    \\  /    A nd           | Version:  6
     \\/     M anipulation  |
\*---------------------------------------------------------------------------*/
FoamFile
{
    version     2.0;
    format      ascii;
    class       surfaceScalarField;
    location    "400";
    object      phi;
}
// * * * * * * * * * * * * * * * * * * * * * * * * * * * * * * * * * * * * * //

dimensions      [0 3 -1 0 0 0 0];

internalField   nonuniform List<scalar> 
44611
(
1.53212
-2.15881
0.626688
1.53212
1.44609
-1.44609
1.93941
-0.493327
-1.31922
-0.707832
2.02705
-1.31922
-0.0935287
-2.18851
2.10068
-0.568557
1.30274
-1.30274
0.180629
1.85448
-2.17628
0.7302
2.37679
-0.340667
0.413076
-1.7323
-0.800663
-1.20649
0.800663
1.30002
-0.556198
-1.34399
0.556198
0.746539
-0.597451
-0.824373
0.824375
-1.17128
1.35191
-0.0104963
1.28967
-1.27918
-0.13875
-1.87299
2.01174
1.52844
-0.215093
-1.31335
1.21974
-1.21974
-1.10938
1.10938
-1.51225
1.51225
-1.19564
1.19563
1.5093
0.0191391
-1.92112
0.408868
-0.920211
-0.7864
1.70661
-1.62804
-1.27632
1.27632
0.123511
-1.42565
1.30214
-1.496
1.49599
-1.2847
-0.223615
1.50831
-1.38004
1.38003
1.65609
-0.143843
-0.46045
1.5116
-1.05115
1.72115
-0.501412
1.33578
-0.21485
-1.12094
-0.703754
1.09901
-0.39526
1.19357
-1.46553
0.271963
-0.881253
0.881254
-1.1458
1.03987
0.105934
0.959487
-0.959488
1.19933
-1.33808
-2.29757
0.816459
-0.816457
1.02091
-1.236
1.83736
-2.05246
-1.614
-0.624246
-0.822228
-0.791771
-0.899098
0.899096
-1.04032
1.02982
1.92892
0.0911392
-1.47118
0.103712
-0.300365
1.21497
1.16182
1.7323
0.166941
0.534619
-1.2217
2.04392
-1.47119
-0.98458
-0.480955
1.30039
-1.30038
0.910484
-0.419409
-0.491076
1.33086
-1.14516
-0.185692
-0.800502
-0.627582
1.42808
-0.000208319
-0.0794255
0.0796335
1.67774
-0.388062
-1.70717
-0.165831
-0.360144
0.917291
-0.557148
-0.0384517
0.0458392
-0.00738754
-0.136334
-0.617575
0.753907
-1.16171
0.457951
0.0103127
0.0616006
-0.0719137
-0.0330883
0.00716013
0.0259282
0.855929
0.214423
-1.07035
-0.00281341
0.00281335
1.47501
0.524515
0.240592
1.23442
0.798748
0.878993
-0.0238536
-0.0092346
1.23258
-0.504279
-0.728299
0.918351
0.314229
-1.07805
-0.629116
-0.266202
-0.811855
-0.989261
-0.476112
-0.912513
1.38862
0.00498223
-0.0434339
-0.00767668
0.0342499
-0.0265732
-0.729724
0.853232
-0.651627
-0.290713
0.942337
-1.18063
0.957011
0.000581445
-0.000581493
0.0933408
0.823948
1.00382
0.658115
0.864002
0.466863
1.15934
-0.295331
-0.0777732
0.645808
-0.568037
-0.36275
-0.482813
0.845562
0.415065
-0.748608
0.333541
1.14032
0.859681
-0.750355
0.762474
-0.0121214
-0.797823
1.06978
-0.889545
0.197981
0.691562
-0.882271
-1.11767
-0.849159
-1.44841
1.11536
0.339033
-1.45439
0.928448
-0.0725214
-0.198725
0.746977
-0.548257
-0.961775
-1.09068
-1.43789
-0.854058
-1.10528
-1.62141
0.767356
-0.868248
1.27712
-0.348386
0.813719
-0.465336
-0.987397
0.175541
-0.418536
-0.53966
0.958194
-1.31305
0.89451
-0.264238
0.831766
-0.567529
-0.834777
-0.0777376
0.75403
-0.617306
0.831728
-0.894291
0.593926
0.048869
-0.0385563
0.0372622
-0.0449391
0.599915
-0.814766
0.85448
-0.68754
-1.50231
0.686637
-0.796356
0.109717
0.815669
-0.711959
0.90241
-0.0887835
-0.813625
-1.40183
0.000643111
-0.000643158
0.00064313
1.07209
-1.07208
1.07174
-1.07174
-1.15446
1.36173
-0.207271
0.624435
-1.07601
0.451579
-0.29505
1.36679
-0.899319
0.581809
0.317509
-0.929727
0.0304057
0.828043
-0.628705
-0.199339
0.02754
0.335291
-1.13312
-1.2537
1.25371
-0.440016
1.35837
-0.110848
-0.465119
0.00438765
0.460732
-0.151218
-0.313902
-0.643956
0.492736
0.375117
1.03323
1.40242
0.616015
-0.0231691
0.980179
-0.0797892
0.933019
-1.25727
0.358174
-0.840988
-0.285781
-0.934282
0.333931
0.600352
-1.11955
0.18527
0.0889837
-0.80056
-0.96392
-0.315254
-1.45725
-0.727047
-0.23441
1.7304
1.06773
-1.20233
1.30826
-0.0661925
-0.682417
-1.06077
1.70949
-0.648716
0.0880699
-1.42115
1.36302
1.98971
-0.861802
0.861806
-1.64466
0.782861
-0.00651855
-0.00246712
0.00898565
-0.0243229
0.0295125
-0.00518958
-0.00671564
0.00458603
0.0021296
0.0481449
-0.057271
0.00912612
-0.00416516
-0.00428705
0.00845222
0.00424934
-0.00841449
-0.0456636
0.00433362
0.0413301
-0.593809
0.294046
0.299763
-0.0635439
0.0495729
0.0139711
0.0143948
-0.0648372
0.050442
-0.00437474
0.00862408
-0.0051657
0.000828537
0.00433723
0.0187437
-0.000976684
-0.0177671
-0.00205505
-0.00840918
0.0104644
0.00652886
0.00380866
-0.0103375
-0.00202906
-0.00535366
0.00738273
0.00515637
-0.00355999
-0.00159636
0.0066203
-0.0010397
-0.00558058
0.0112133
0.0091551
-0.0203682
0.0309035
-0.0196902
0.000134516
-0.00508824
0.00495372
0.00488569
-0.00475116
0.634683
-0.436702
0.09961
-0.0407751
-0.0588357
-0.0140099
-0.0157616
0.0297716
0.0214365
-0.0361258
0.0146893
-0.00537669
0.00537673
-0.00718789
0.00210416
0.00508371
0.0258792
-0.00945423
-0.0164249
-0.0368534
0.00913994
0.0277135
-0.0853171
0.0155545
0.0697629
0.00410383
-0.00704158
0.00293783
-0.00715033
0.0056308
0.00151956
0.109401
-0.0336622
-0.0757371
0.000928892
0.0510045
-0.0519327
0.0352074
-0.032477
-0.00273037
0.00122567
-0.0187546
0.0175289
-0.0578919
0.0148879
0.0430042
-0.0385109
0.05329
-0.014779
0.00351605
-0.0079634
0.00444738
-0.0060456
-0.0023689
-0.00623022
-0.00721505
0.0134453
-0.0105173
-0.0396902
0.0406193
0.0361762
-0.0758661
-0.00304787
0.00975969
-0.00671182
0.0309151
0.00898347
-0.0398986
0.0157375
-0.00383747
-0.0119001
0.00368836
-0.00368821
0.00859669
-0.0269038
0.0183072
-0.00647769
0.00310908
0.00336859
0.0527075
-0.0467717
-0.00593519
0.0308396
0.0316747
-0.062514
0.0562715
-0.0254317
-0.00326055
-0.00321711
-0.0188917
0.0205173
-0.00162547
-0.00665783
-0.0122339
0.00405281
-0.0112678
-0.00480835
0.00723434
-0.00242587
0.0032897
-0.00653032
0.00324066
-0.0251715
0.0395662
0.0206676
0.0113557
0.00738795
0.0185159
-0.0190594
0.023236
-0.00417661
0.23802
-0.199907
-0.0381149
-0.00559767
0.00319783
0.00239986
-0.634695
0.34398
-0.0207057
0.0140479
0.0879193
0.462993
-0.550913
0.0551142
-0.0710059
0.015892
-0.0027777
0.00507962
0.0110268
-0.0161064
0.000973705
-0.000973672
-0.0557735
0.473204
-0.417428
0.0138396
-0.00240374
-0.0114359
0.0073592
-0.00278052
-0.00457869
0.00511235
0.00150796
0.006564
-0.0220058
0.0154417
0.0159844
-0.0181153
0.00213088
0.00942392
0.00656039
-0.0251501
0.0521676
-0.0270173
0.00325887
0.00410036
-0.00301008
-0.00258757
-0.00939957
-0.0133838
0.0227833
0.00236631
0.00866298
-0.0110293
-0.00230309
0.00542474
-0.00312157
-0.00587688
0.00357383
0.00449083
0.000933923
0.00110342
0.0153611
-0.0164646
-0.00988294
-0.0294364
0.0393192
-0.00906204
-0.0366909
0.0457528
-0.430235
0.357289
0.0729466
-0.0334567
-0.00505411
0.0185688
0.0302042
-0.0487728
0.0169675
-0.00352218
-0.017788
0.0165373
0.00125073
-0.0144925
-0.00329559
0.0224966
-0.0130727
-0.0386047
0.0242192
0.0143857
-0.00221668
0.00593967
-0.00372293
-0.00732895
0.048317
-0.0409875
0.045379
0.0379719
0.0103452
-0.00218416
0.0253373
-0.0231531
0.016932
-0.0158286
0.0147478
-0.00632253
0.0195748
-0.0132522
0.00416423
-0.0182195
0.0140553
-0.00954856
-0.00923234
0.0187809
0.0102809
0.00668658
0.000732344
-0.00254576
-0.0267881
0.0192659
0.00752221
-0.0231165
0.0248624
-0.00174593
-0.0499045
0.0441283
-1.28078e-05
-0.00717509
-0.00443309
0.00638787
-0.0019548
-0.0262562
-0.567551
0.0489743
0.0308334
-0.0798077
-0.0139193
0.00698699
0.00693232
0.0109325
-0.0074939
-0.0034385
-0.0426421
-0.0158153
0.0584583
0.322696
-0.524814
0.202117
-0.0053344
-0.00518289
-0.0879985
0.224359
-0.13636
-0.927459
0.309884
-0.00563028
0.00668665
-0.00105639
-0.00820936
0.00723267
0.03475
-0.000500055
0.026601
0.00814901
0.0248372
0.00774298
0.0127743
0.0119072
0.00313402
0.00964028
0.000432553
-0.0242862
-0.0173345
0.00723984
-0.0166732
0.00943334
-0.0159398
-0.00139474
-0.00870001
-0.0249375
-0.000642921
0.0255803
-0.0399747
0.0134014
-0.244751
-0.185484
-0.0251246
-0.0384191
0.0234899
0.0298002
0.0310121
-0.391339
0.497273
-0.105935
-0.514452
0.502331
0.00117553
-0.00117555
-0.00625401
0.00253946
0.00371454
-0.0604744
0.0178326
0.000896676
0.0343109
-0.435798
-0.491662
0.167378
-0.603177
-0.556706
0.0650413
0.00209679
0.0288184
0.0248668
-0.0261668
0.00130007
0.0319385
-0.0384477
0.00650923
-0.00554869
-0.0125666
-0.0118712
-0.00462843
-0.00793816
0.0596189
-0.142741
0.0831214
0.244983
0.224536
-0.46952
0.347715
-0.102733
0.558077
-0.0133896
0.0167362
-0.00334633
-0.0126522
0.0169857
-0.00433334
-0.0260418
0.0337219
-0.0108003
-0.0492635
0.0600636
0.0368678
0.000394488
0.0260675
-0.0270439
0.0227105
0.00385953
-0.0158943
0.00594609
0.00277851
-0.00872461
-0.00258519
0.00739351
-0.00480832
-0.0349318
-0.00192099
-0.010446
0.0318829
0.0273853
0.0221481
-0.0495334
0.0375269
-0.0297142
-0.00781277
0.0311166
-0.0313251
0.0337206
-0.0287385
0.0073504
-0.00147373
-0.00587665
0.511665
0.123018
0.582448
-0.0707841
0.885967
-0.419102
0.0854066
-0.00918119
0.00119221
0.007989
-0.00955119
0.00303264
-0.0101665
0.00676916
0.00339734
0.00157308
-0.0117396
0.0123112
-0.005542
0.00470531
0.0202259
-0.0249312
0.0090834
0.00366542
-0.0127488
0.00946191
-0.0106007
0.00113874
0.0071455
-0.00923687
0.00209134
0.00395911
-0.0083922
0.0104715
-0.0244815
-0.00881594
-0.00687154
0.0156875
0.00639056
-0.0152065
0.0073197
-0.0141912
-0.0212828
0.0120482
-0.00531821
0.0313857
-0.00840657
0.0124594
-0.00728094
0.0119863
0.0244456
-0.485382
0.545431
-0.0600484
-0.0223922
-0.00416897
0.0265611
0.00172458
0.0185013
0.0143322
0.0183582
-0.0577142
0.0393554
-0.0225743
0.0409321
0.00121804
-0.00458445
0.00336644
0.00513554
-0.000644672
0.00635359
-0.00522912
0.760063
0.00799215
-0.768056
-0.0535615
-0.51217
0.192548
0.31962
0.0287666
0.00317177
-0.00508613
-0.027391
0.0236804
-0.0402661
0.0715604
-0.031294
0.442462
-0.547565
0.105103
-0.0384648
-0.0309264
0.0693911
-0.0741498
0.0356848
-0.358795
0.599512
-0.240719
-0.583542
0.560371
-0.0595173
0.163479
-0.103961
0.1072
0.13082
0.00310663
-0.00301751
-8.90836e-05
0.257774
0.113379
-0.371154
0.262161
0.0172785
-0.0160529
0.00730737
0.0189788
-0.0262861
-0.0164625
-0.00957923
-0.0328777
0.0238155
-0.0175642
0.0503342
-0.0327703
-0.885951
-0.188461
1.07441
0.571723
0.373551
-0.945274
0.470372
0.287333
-0.757705
0.180552
0.28982
-0.511613
0.621328
-0.468566
0.635943
-0.305399
0.393317
-0.441578
0.361787
0.755103
0.00958962
0.0162896
-0.0161536
-0.00290583
0.0300618
-0.0210783
0.00573884
0.0310893
0.00183756
0.00909491
-0.00790002
3.60965e-05
0.00786395
-0.00606246
0.00913102
0.506172
-0.0431803
-0.0886282
0.447061
-0.358433
0.417543
0.00180197
-0.00284466
0.00104263
-6.67593e-05
0.00225472
-0.00218793
0.058485
-0.766898
0.708411
0.00238446
-0.000277458
-0.00210699
0.162587
-0.102968
-0.0391825
1.17951
0.285794
-0.96265
0.676855
-0.00218719
-0.00318952
0.00311302
-0.00530029
-0.753678
0.33962
0.414059
0.573126
-0.859738
0.493795
0.365942
0.0727105
-0.0217058
-0.26761
0.49837
-0.230762
-1.17003
0.542452
-0.00238342
0.00238338
-0.695941
0.669683
-0.0076895
0.00442892
0.777269
-2.03097
0.74894
-0.758237
0.00929823
-0.557188
1.62928
-0.602717
0.691156
-0.0884384
0.385339
0.257246
-0.642585
0.8278
0.00298153
-0.0029814
-0.244983
0.776197
-0.531211
-0.730365
-0.466445
0.800379
-0.623326
0.0312543
-0.0538286
-0.837502
-0.332531
-1.29698
0.831647
0.543077
-0.620851
-1.03659
0.469056
0.0436237
0.465382
0.876175
-1.34156
-0.829156
1.29454
-1.38634
-0.769382
0.349973
-0.691563
-0.0778193
-0.868178
0.00844017
-0.809691
1.33924
-0.814727
0.184784
0.394539
0.00220506
0.00362676
-0.00583185
-0.132364
0.364909
0.216577
-0.908142
-0.365435
0.153116
0.212319
-1.03684
0.624605
0.124333
-0.633045
0.00248293
-0.00264058
0.000157625
-0.95536
0.0295637
0.0675361
0.0156038
-0.462093
0.649605
-0.187515
-0.344273
1.47553
-1.81981
-1.00232
-0.102967
0.914246
0.513837
-0.0178255
-0.0912437
0.0734181
0.828304
-0.505609
0.366211
-1.69349
1.39844
0.899281
-0.404656
0.213119
0.191538
-0.991887
1.8537
-0.737308
0.535825
0.201484
-0.261692
-0.475614
-0.209024
1.24331
-1.45233
0.00167736
-0.000501911
-0.310967
0.781619
0.0468632
-1.31795
0.198402
-0.519197
-0.000947291
0.00094729
-0.0125894
-0.610535
1.54141
-0.179678
0.61168
0.0668395
0.0425621
-0.0246064
0.0562811
0.239647
0.117642
-0.165009
0.01138
0.608108
-0.600116
-0.554547
-0.286441
0.9015
-0.418617
0.00304286
-6.12189e-05
0.646912
0.0315344
-0.480635
-0.590289
-0.033037
-0.900393
0.310105
-0.534452
0.709172
-0.432948
0.550591
-0.71939
-0.264809
0.47793
-1.34648
-1.49032
0.649411
-1.04408
0.0549245
0.00134692
-0.253322
0.831716
-0.578391
0.0428052
-0.111892
0.0644636
0.047426
-0.0569692
-0.0549221
-1.18979
1.05172
0.13807
0.227944
-1.27202
0.828296
-0.361495
0.029174
0.231928
-0.261101
-0.0876512
0.116825
-0.00811351
0.0224458
0.0163321
0.0170644
0.00493006
-0.393471
-0.569178
-0.619041
0.0900706
-1.56126
-0.0227908
-0.0613473
0.770176
-1.53028
0.760104
-0.877274
1.64745
-0.753007
0.213204
0.164962
1.23269
1.56126
0.169142
0.0472663
-0.0393304
-0.00793568
0.00049473
1.64317
-1.02715
0.914868
-0.28553
0.0058769
-0.0971204
-0.0749359
0.0808132
0.874079
0.200332
0.688387
-1.06268
0.643572
-0.37429
-0.937383
0.477238
-0.655879
0.0398219
0.816019
0.530489
-0.578636
-0.896699
0.318063
-1.09068
0.538605
-0.0461903
0.119609
0.0346227
0.151448
-0.0052469
0.00481391
0.00043295
-0.00304188
-0.146861
-0.57253
-0.391612
0.0185407
1.58817
1.08675
0.00235887
-0.00578422
0.00342535
-0.00454264
0.00690152
0.00965438
-0.0053747
-0.00427968
0.0019692
0.00768518
-0.00380383
0.00683139
-0.00302755
0.00747668
0.000293837
-0.00777053
-0.000545395
0.00823807
-0.00769266
0.00632256
-0.0064483
0.000125742
-0.00406648
-0.00239662
0.00646311
0.000134983
-0.00549688
0.0053619
-0.00462478
0.00235485
0.00226991
0.00252095
0.00693358
-0.00945453
-0.00120866
0.00964362
-0.0084349
-0.008812
0.00340775
0.00540426
-0.00115535
0.00841033
-0.00725498
-0.0143032
0.0140992
0.000204046
-0.00709319
0.00377207
0.00332109
0.00990924
-0.0101644
0.000255128
-0.0152832
0.0113851
0.00389812
-0.00424492
0.00316722
0.00107774
0.00700115
-0.00820977
-0.0160755
0.00239016
0.0136852
-0.0079008
-0.00817467
-0.00672373
0.00233891
0.00438481
0.000926244
-0.00764997
0.00534821
0.00307273
-0.00842094
-0.00675261
0.000779744
0.00597287
-0.00208103
-0.00467158
-8.31896e-05
0.00546394
-0.00538075
0.0095757
-0.00921894
-0.000356757
0.00773542
0.00184028
-0.00753371
-0.00251398
0.0100477
-0.00475206
0.00488704
-0.000638468
-0.00472209
0.00536056
0.00239817
0.00362588
-0.00602404
-0.00665476
0.00632989
0.000324876
-0.0026112
-0.00404357
0.00561073
-0.00769176
-0.0104227
0.00237127
0.00805147
-0.00299409
-0.00742866
0.00199056
-0.00525158
0.00326105
0.00428808
-0.000359608
-0.00392847
0.00342648
0.000861603
-0.0136083
0.0240797
-0.0023939
0.00440488
-0.002011
-0.00739282
-0.000743538
0.00813635
-3.91594e-06
-0.00738891
0.00182468
-0.00348406
0.00165938
0.0290036
-0.0541549
0.0251514
0.0255441
-0.00783742
-0.0177065
0.00199235
-0.00734355
0.0053512
0.00964003
-0.000520073
-0.00911995
0.00410435
-0.00289462
-0.00120973
-0.00723815
-0.00206859
0.00930675
-0.0128529
0.0086589
0.00419405
0.00449247
-0.010786
0.00629356
-0.00799249
0.00148638
0.00650605
0.0132635
-0.00478252
-0.00848096
-0.00609114
0.0193547
0.00191328
0.00710522
-0.00901849
0.00376399
0.00697997
-0.010744
-0.00615807
-0.00297974
0.00913781
0.00530892
-0.0111408
0.00583188
0.00747787
-0.0067881
-0.000689768
0.00214417
-0.00891238
0.00676821
0.010686
-0.0222363
0.0115503
0.00312472
-0.00677479
0.00365007
-0.0056948
-0.000919816
0.00661461
0.0103129
-0.00615848
-0.00415446
-0.00841359
0.000381162
0.00803244
-0.00606167
-0.00152641
0.00758808
0.0043971
-0.3258
0.321403
0.192598
-0.188201
0.00887838
0.000231545
-0.00910992
-0.00147389
-0.00753874
0.00901264
0.000302257
-0.00423139
0.00392917
-0.00785502
0.00495223
0.00290279
0.00116683
0.00817759
-0.00934444
-0.0105353
-0.0037679
-0.00430399
-0.0062313
0.0109201
0.014624
0.00888533
-0.00888536
-0.00416417
-0.00416408
0.00832827
-0.00902175
-0.00515577
0.0141775
0.00584055
-0.00204562
-0.00379492
0.00803715
-0.00763573
-0.000401427
0.00557003
-0.00452674
0.00771609
-0.00318935
-0.00767854
0.0010343
0.00664425
-0.00330672
-0.00437182
-0.00682072
0.00842537
-0.00842538
-0.00186409
-0.00376452
0.00562861
-0.0073693
0.0065043
0.000864996
-0.00173193
-0.00563738
-0.00408814
0.0068553
-0.00276715
-0.00524678
0.00350425
0.00174254
0.00185214
-0.00709892
-0.00507294
-0.00239252
0.00746546
-0.011133
0.00477155
0.00636143
-0.00827885
0.00843542
-0.000156563
-0.00491537
-0.00336348
-0.000196946
0.0167553
-0.0165583
-0.0185879
0.0244202
-0.00583222
0.00380571
0.0013507
0.00712169
0.000964046
-0.00808574
0.00889858
0.00644731
-0.0153459
0.0295492
-0.04245
0.0129008
-0.00866046
0.00932698
-0.000666517
-0.00540617
-0.0107164
0.0161227
0.00755151
-0.00460149
-0.00295001
0.00113408
0.00641743
-0.00387006
-0.00387269
0.00774275
-0.0077871
0.00993127
-0.012061
0.00590293
-0.00470654
0.00975882
-0.00505232
-0.00112148
0.00296951
-0.00184804
0.00496706
-0.00730942
0.00234235
-0.00905956
0.00245834
0.00660122
0.0113331
-0.00415701
-0.00717609
0.00411137
0.00722173
-0.0069675
0.00159501
0.0053725
-0.00633264
0.00632873
-0.0093181
0.000405714
-0.00555411
0.00299342
0.00498176
-0.00797518
0.00487684
0.00391893
-0.00879577
-0.00345249
0.00916457
-0.00571208
0.00705659
-0.00878852
-0.00726184
0.00642841
0.000833435
-0.00780525
0.00326259
0.00721063
-0.00252089
-0.00468974
0.0107612
-0.0110877
0.000326526
-0.00621933
0.00553128
0.000687914
0.00562716
0.00365919
-0.00928634
-0.00438817
0.0140452
-0.00965706
-0.0140334
0.0061326
-0.00412416
-0.00938529
-0.00597926
0.0153646
0.0126628
-0.0220481
0.0390042
0.0105689
-0.00753494
0.00649629
0.00103865
0.00679991
0.000210496
-0.00701041
0.00725323
0.00473822
-0.0119915
0.0261976
-0.063485
0.0372878
0.0472132
-0.0210155
-0.00559684
0.00595151
-0.000354672
-0.0223965
-0.018943
0.0413396
0.0925506
-0.0113159
-0.0812365
-0.00739769
0.00737405
2.36402e-05
0.028435
-0.00740798
-0.021027
0.0356527
-0.00721769
-0.00237164
0.00666636
-0.00429472
0.0012323
0.0101932
-0.0114255
-0.0075475
0.00101725
0.00653018
-0.000638564
0.00829843
-0.00765984
-0.00833818
0.0124267
-0.0040885
0.0153951
-0.0109056
-0.00448945
-0.00125419
-0.00532781
0.00658202
-0.0017023
-0.00441071
0.00611302
0.00425476
0.00550795
-0.00976272
0.00586551
7.49919e-05
-0.00594051
0.0119016
-0.00799157
-0.00390998
0.00938152
0.00252004
0.00389594
0.0042919
-0.00818783
0.00765444
-0.00230623
-0.00134848
-0.00563953
0.00698801
0.00239087
-0.00707896
0.00468809
0.0101843
-0.00821505
0.0101506
-0.0071402
-0.00301041
-0.00436576
-0.000799888
0.00675489
-0.0039188
-0.0028361
-0.0003383
-0.00958069
0.00566188
-0.00228166
-0.0047894
0.00707107
0.00980656
-0.0112805
-0.00743961
0.00356956
0.000827002
-0.00579283
0.00496587
0.00493084
0.00719403
-0.00406931
-0.0101734
0.00256529
0.0076081
0.00774246
-0.00500574
-0.00273671
-0.00299733
-0.000994704
0.00399205
0.00181166
0.00319519
-0.00500685
0.00707903
-0.00526736
-0.000248892
-0.00707377
0.00732266
-0.0795499
-0.192559
0.272109
-0.0367542
0.0314905
0.00526369
0.00607092
-0.000774699
-0.00529621
-0.00146401
-0.00648544
0.00249105
0.00399439
-0.00575605
-0.00690164
0.0126577
-0.00408989
-0.00798098
0.0120709
-0.00577769
0.00953185
-0.00375416
-0.00313955
0.00957286
-0.00643332
0.00515812
-0.00283148
-0.00232665
0.000207158
0.00495096
-0.00154592
-0.00269896
0.000461908
0.00757789
-0.0080398
0.0017701
0.00600243
-0.00777253
-5.9562e-05
-0.00718328
0.00724285
0.00454814
0.00978125
-0.0143294
-0.000373321
-0.00688935
0.00726267
-0.00609397
0.00572065
0.00530128
-0.008224
0.00292273
-0.00610191
0.00683846
-0.000736558
-0.00171339
-0.00438852
0.00622766
0.00450748
-0.0107351
0.413816
-0.221268
-0.00456412
0.0104299
-0.00586581
-0.0103399
0.00280619
-0.00917309
0.00697068
-0.00439948
-0.00257119
0.00471491
0.000755732
-0.00547064
0.00668538
-0.00513184
-0.00155355
-0.000494699
-0.00692761
0.00742231
-0.000540601
-0.00694615
0.00748675
0.00235661
-0.00828171
0.0059251
-0.00699364
-0.00664957
0.0136432
3.99645e-05
0.00593692
-0.00597688
0.000639065
0.00510681
-0.00574587
-0.000923087
0.00817631
-0.0107475
0.00296045
-0.00376757
-0.00910054
-0.00732923
0.00568229
0.00164693
-0.00442638
-0.00290284
0.00647987
-0.00708474
0.000604863
0.00247966
0.00400022
-0.00589384
0.00889833
-0.00300449
-0.00769767
0.00180382
-0.00432668
-0.00365394
0.00798063
0.00518967
-0.0161156
0.010926
0.0111872
-0.00731912
-0.00386805
0.0068907
0.00429652
-0.0376044
-0.008059
0.00680853
0.0023238
-0.00913233
-0.0106435
0.00667149
0.00397203
0.0041946
0.00243688
-0.00663147
0.0141589
-0.00608818
-0.0080707
0.00972363
-0.0130576
0.00333399
-0.00408676
-0.00448891
0.00857568
0.0016934
-0.0105663
0.00887289
-0.00276452
-0.00782368
0.0105882
0.00895114
-0.0059487
-0.00300244
0.00331413
0.00559817
-0.0089123
-0.00266429
-0.00726612
0.0099304
-0.00423177
-0.00494801
0.00917977
0.00223697
0.00480129
-0.00703826
0.00553345
-0.00724705
0.0017136
0.000957576
-0.00953851
0.00858093
-0.0252131
0.0197122
0.00550094
0.00776961
-0.0329827
0.00912599
-0.00665022
-0.00247577
-0.00759101
0.002254
0.00533702
0.00293748
0.00377391
-0.00671139
0.000945044
0.00299427
-0.00393931
0.0574298
0.0243177
-0.0817477
-0.0278874
0.00956748
-0.00787408
0.00451703
0.00164065
-0.00615768
2.7763e-06
0.00569557
-0.00569835
-0.0207705
0.0146181
0.00615246
-0.0125961
-0.00817444
0.00277363
-0.00727045
0.00449682
-0.0399747
7.62116e-05
0.00714107
-0.00738915
0.00024809
0.00431954
0.00511381
-0.00943335
0.00670572
-0.0027814
-0.00392432
0.0187371
-0.0101403
0.0103868
0.00609443
-0.0164812
0.00185506
-0.00976913
0.00791406
0.00184354
-0.0120868
0.0102433
0.000111566
-0.0119321
0.0118205
0.00422284
-0.00833557
0.00411273
-0.0095824
0.00384165
0.00574076
-0.00254855
-0.00558821
0.00813676
0.00396204
0.00477175
-0.00873378
0.00719514
-0.0062689
0.00365812
0.00361222
-0.00727035
-0.00780791
0.00369967
0.00410824
-0.00152624
-0.00628167
-0.00654784
0.00865282
-0.00210498
0.00799615
0.000438983
-0.00843513
-0.00176626
-0.00205888
0.00382513
-0.00361994
0.0125672
-0.00894733
0.00101503
0.0100506
-0.0110656
-0.00075722
-0.010187
0.0109442
0.00844608
-0.0130768
0.00463067
-0.0104343
0.00289556
-0.00787521
-0.00255907
-0.00755843
-0.00352431
0.0110827
0.00566479
-0.010472
0.00480727
-0.00758379
-0.00227261
0.0098564
-0.00712188
-0.00882045
0.00242594
-0.00632
0.00389407
-0.00307979
0.00518395
-0.0202235
0.0092246
0.010999
0.00726283
-0.00149815
-0.00576468
-0.00499636
0.00640536
-0.00140901
0.0128528
-0.00312918
0.00884394
0.00400884
0.0110297
0.00881051
-0.00704581
-0.00176474
0.00274892
-0.00346819
0.0396446
0.0109909
-0.00452197
-0.00646889
0.00701252
-0.00788123
0.000868706
0.000984781
0.00602773
0.00886823
-0.00852383
-0.0003444
0.00532768
0.00354055
-0.00435899
-0.0142289
-0.0104501
-0.0059706
-0.00825827
0.00860814
-0.00237905
-0.0062291
-0.00734778
0.00653649
0.00081129
0.00338129
0.00489189
-0.00827315
-0.0121536
0.00499973
0.00715384
-0.00554244
-0.00510922
0.0106517
-0.0227286
-0.0187545
0.0414832
-0.00910095
0.0062364
0.00286453
-0.00557087
-0.00353009
0.0110978
-0.0082004
-0.00289729
0.00236121
0.0071873
-0.00954851
-0.00721299
0.0066676
0.00216107
-0.00784767
0.0056866
-0.00638257
0.00452318
0.00185938
-0.00176679
0.00357145
-0.00180467
-0.00459102
0.0166491
-0.012058
-0.0252391
0.020648
0.137712
-0.243648
-0.188087
0.0624958
-0.0219846
-0.0405111
-0.00960884
0.00457268
0.00503616
-0.0101418
0.000533003
-0.00443796
-0.00486891
0.00930687
0.00471441
-0.00915237
-0.0127448
0.0208811
-0.00813635
0.0167677
0.0271726
-0.00629149
-0.0132637
-0.0345761
0.0478399
0.0244796
-0.0377432
0.000251133
0.00610249
-0.00445951
0.0204615
-0.016002
0.00921444
-0.0233429
0.0141285
0.000318174
-0.00798666
0.00766849
0.0149993
-0.00375944
-0.0112398
0.0127814
0.00221793
0.00467311
0.00569554
-0.0103686
-0.00607086
-0.00887035
0.0182517
-0.00938136
0.00412563
-0.00582792
-0.00322215
-0.0353384
-0.0261697
0.0615081
0.0333386
-0.056413
0.0230743
0.00423139
0.00686852
-0.0110999
-0.00395576
0.00818715
0.00109511
0.00577341
0.00408632
0.0045166
-0.00860291
-0.00412712
0.0091997
-0.00507258
0.00612504
0.00248309
-0.00292288
0.00973141
-0.00311616
-0.00310384
0.00621989
-0.00934926
0.0120113
-0.00266202
-0.0050906
0.0128957
-0.00780515
0.00886121
-0.000683635
0.00634724
0.0109696
-0.00108879
-0.0098808
0.00392643
0.00393033
-0.00785676
-0.0103494
0.00625948
-0.00424832
-0.00580282
0.0100511
0.00899458
-0.0037577
-0.00523688
0.001003
-0.00701141
-0.00355982
0.0105712
-0.00515634
0.00489826
-0.00845808
0.00310557
-0.00815615
0.00505059
-0.00519446
0.00830002
0.00616191
-0.00452229
-0.00163961
-0.00652753
0.00223529
0.00429226
0.00716064
0.00105899
-0.00821963
0.00241629
0.00381173
-0.00622802
0.00426842
0.00494581
0.00846764
-0.0105225
-0.00735446
0.00297772
0.00437674
0.0164933
0.0235624
-0.0400557
0.0370374
-0.0202115
-0.0168259
0.00120305
0.00580907
-0.00701212
-0.00458324
0.00578629
0.000890481
0.00491859
0.0095894
-0.00536656
0.00254036
0.00635294
-0.00889329
-0.000259573
-0.00607307
0.00722708
-0.0019258
-0.00799888
-0.0106673
0.00857714
0.00209015
-0.01031
0.00967149
0.00673111
-0.00234114
-0.00438996
0.000821336
0.0118415
0.0115073
0.00664805
0.00519341
0.0071905
-0.0101846
-0.0019146
-0.00826899
0.0101836
0.0134534
0.0018715
-0.0153248
0.0161045
0.00713149
0.025319
-0.00334937
-0.00397047
0.00731988
-0.00560635
0.00225699
0.00588209
-0.00662563
-0.00962552
-0.0288173
0.0384428
-0.00042246
0.00787044
-0.00744798
0.0102775
-0.00882996
-0.00144756
-0.0156057
-0.000647287
0.016253
-0.0446272
0.0201261
0.0245011
0.0356326
-0.0268627
-0.00876988
0.00347709
0.00629402
-0.00977111
0.0139925
-0.0199717
-0.000498057
0.0066231
0.00510918
-0.00560724
0.00480609
0.001817
0.00405364
0.00418444
-0.00427001
0.00832365
-0.00258671
0.00677115
0.00886038
-0.0214564
-0.00739778
0.00614357
-0.00553965
0.0028711
0.00266855
0.00126027
0.0222622
-0.0256877
0.00342549
-0.00723058
-0.00390244
0.00524777
0.00107479
0.00516458
0.0069403
0.00754391
-0.00538285
-0.00647376
0.00647384
-0.0330949
0.00773688
0.025358
0.00485756
-0.00712058
0.00226304
0.00728351
-0.00172081
0.00431592
-0.00259511
-0.00155068
0.00155074
0.0199991
0.0170383
-0.00736171
0.00614704
0.00121468
0.0317801
-0.00197986
0.00561207
0.004751
-0.0103631
-0.0033559
0.00896797
0.00204339
0.00708105
-0.00912444
0.00657275
-0.00237814
0.00830582
-0.00884642
0.037147
0.018644
-0.0557909
-0.0047189
-0.00451746
0.00923637
-0.0128352
-0.0027705
-0.000652666
-0.0121825
0.0136204
-0.0163909
-0.00577029
0.00179983
0.0248765
0.0028944
-0.0277709
0.00895584
0.0159207
-0.0258311
0.0287255
-0.00168785
0.00777924
-0.00609139
0.00199585
0.00618198
-0.00817784
-0.00372753
0.00372757
-0.00478933
0.00641936
-0.00163
-0.00582903
-0.0348379
0.0172101
0.0176278
-0.0125757
-0.00802894
0.0059248
-0.00592498
-0.00349263
0.00349267
-0.00388448
0.0126103
-0.00872584
-0.00188598
-0.00593608
0.00782209
-0.00804262
0.00518603
0.00285679
0.00151549
-0.00545542
0.00393993
0.00587563
-0.00182808
-0.00404755
0.00739112
-0.0102825
0.00836791
-0.0055604
0.00655895
-0.00099853
-0.00304565
-0.00256068
0.00636416
-0.00950371
0.00277804
-0.002778
0.00371945
0.00393499
0.00497972
-0.0112138
0.00307915
0.00813464
-0.0142566
0.000246805
0.0140099
0.000452382
-0.0107746
0.0103222
-0.00622689
-0.00800112
0.0142281
0.00571409
-0.00332322
0.00212756
-0.00582214
0.00369459
0.0258407
-0.00139595
-0.0244447
0.0227903
0.00438228
-0.00679244
0.00713729
-0.00034486
-0.0106808
0.00492471
-0.0132406
0.00255987
0.0127528
-0.00782805
-0.00964803
-0.000121093
-0.00572469
-0.00392334
-0.00034614
0.00602843
0.0165904
0.0099775
-0.0265679
0.0035433
0.0064836
-0.0100269
0.00676658
-0.0155163
0.00874977
0.0043854
-0.00438577
-0.00967782
0.00252723
0.00715059
0.00349222
-0.00784697
0.00435475
0.00267407
-0.00267403
0.00796325
-0.00560204
-0.0118229
0.0105869
0.00123608
0.00369784
-0.00708312
0.00338529
-0.0113795
0.0137697
0.00232807
-0.0062945
0.00396644
0.0055259
-0.00621331
0.00507854
0.00113477
0.00641114
-0.000957016
-0.00545413
-0.0196054
0.0229499
-0.00334453
0.0195583
0.000249466
-0.0198077
0.0093948
0.00470437
0.00950637
0.011471
-0.00332733
-0.00952561
0.00438688
-0.0077142
-0.000150788
-0.00937482
-0.00412231
0.00555613
-0.00143382
0.00429475
0.00173298
-0.00602774
-0.00548994
0.00549
0.00427825
0.004004
-0.00828226
0.00189589
-0.00189586
0.00660137
-0.0103591
-0.00712136
0.00818515
-0.0010638
-0.264814
0.0604173
0.204396
-0.166523
0.244015
-0.0774921
-0.431336
0.304432
0.0101913
-0.00202184
-0.00816943
-0.00640244
0.00186603
0.00453641
-0.00270459
-0.465175
0.320912
0.144261
-0.152622
-0.312553
-0.00179612
0.0111776
-0.000458256
-0.0137984
0.0131097
-0.007844
-0.00526572
0.0126515
-0.00670258
0.00655833
0.000144254
-0.00484945
-0.00703338
0.0118828
-0.00654089
0.00519241
-0.00660194
-0.00134512
0.00794706
0.0214705
0.00339627
0.000619012
-0.0202244
-0.0225351
0.0317167
-0.00918166
0.0131177
-0.00285944
-0.00277264
0.00277266
0.00231632
0.00511752
-0.00743382
-0.00456261
-0.00286056
0.00742319
-0.00224626
0.00225698
0.00217731
0.00452841
0.00647206
-0.0114312
0.013714
-0.00228287
0.000779262
0.0175851
-0.0183643
0.021321
-0.0205418
-3.29608e-05
-0.00507084
0.0051038
-0.0291008
0.00548365
0.0236172
-0.0234443
-0.00565653
0.0279893
-0.0225057
0.0054448
0.00312677
-0.00857157
0.0070398
0.00809383
-0.011024
-0.000200946
0.0112249
-0.00889954
-0.00212448
-0.00315785
0.0552246
-0.0520664
-0.0111973
-0.0218976
-0.00450337
-0.00221223
0.00165809
-0.00558333
0.00392527
0.000869701
-0.00653841
0.00566871
-0.00550176
0.00637146
0.00361442
0.0129233
-0.0165377
-0.0134328
-0.0040529
0.0174857
-0.00981835
-0.00536978
0.00734606
-0.00197628
-0.00515928
0.00601447
0.000396681
-0.0292353
0.00256059
0.0266748
-0.0145222
-0.0147131
0.0320679
-0.0295073
0.0207799
-0.018683
-0.00538688
-0.00096288
0.000962961
0.00447485
0.000410826
-0.000285888
0.00476074
-0.0106709
-0.0126721
-0.0151304
0.00133922
-0.00133921
0.00428828
-0.00428852
-0.0025049
0.00250476
0.0062112