/*--------------------------------*- C++ -*----------------------------------*\
  =========                 |
  \\      /  F ield         | OpenFOAM: The Open Source CFD Toolbox
   \\    /   O peration     | Website:  https://openfoam.org
    \\  /    A nd           | Version:  6
     \\/     M anipulation  |
\*---------------------------------------------------------------------------*/
FoamFile
{
    version     2.0;
    format      ascii;
    class       volVectorField;
    location    "400";
    object      U;
}
// * * * * * * * * * * * * * * * * * * * * * * * * * * * * * * * * * * * * * //

dimensions      [0 1 -1 0 0 0 0];

internalField   nonuniform List<vector> 
29884
(
(7.53177 0.0610373 -1.03397e-16)
(5.36182 0.0260367 8.75215e-17)
(5.41205 -0.115441 5.58337e-17)
(7.11041 -0.0760467 3.67788e-18)
(7.21682 0.103426 -3.41145e-17)
(5.7439 0.155789 8.51653e-17)
(7.95073 -0.116727 -3.53999e-19)
(7.43831 0.00239428 4.30461e-17)
(4.72252 0.122991 2.72777e-17)
(7.13536 0.0178115 9.53001e-17)
(7.44371 0.00872108 -3.69306e-17)
(7.20164 0.195493 3.4848e-17)
(8.07933 -0.132291 -1.97845e-17)
(7.20382 -0.111845 2.45827e-17)
(7.22961 0.102509 -3.37693e-17)
(4.45834 -0.057166 8.75411e-17)
(8.27989 0.0549484 -3.55251e-17)
(6.70716 0.195806 -5.97647e-17)
(6.56039 0.164368 0)
(4.20657 -0.00447435 -1.65107e-16)
(7.83527 0.211456 1.4558e-16)
(4.94065 -0.0377955 0)
(8.0061 -0.0624681 -5.97404e-18)
(7.11443 -0.0216365 0)
(7.07079 -0.0131967 0)
(7.5955 0.0433378 -3.42636e-17)
(7.89977 -0.0076106 0)
(8.05073 -0.0418189 8.3675e-17)
(5.16108 -0.0249097 1.02688e-16)
(5.20539 0.114002 6.71462e-18)
(5.40111 -0.00840401 -2.76724e-17)
(4.81654 0.0886897 5.23948e-16)
(8.02032 0.0387911 -2.47031e-17)
(7.44427 -0.0317735 0)
(7.27761 -0.0596173 -8.91348e-17)
(7.50852 -0.105547 6.7554e-17)
(5.05529 -0.0378061 7.74359e-17)
(7.55518 0.127435 1.04979e-17)
(5.36197 0.145197 -8.92084e-17)
(7.81648 -0.164246 -3.83626e-17)
(5.05742 -0.055267 0)
(7.05998 0.07 2.60862e-17)
(7.60753 0.191883 -5.04035e-17)
(7.2377 0.281206 -3.30613e-16)
(6.97334 -0.0161478 1.46995e-17)
(7.62595 -0.157501 -1.88373e-17)
(8.0423 -0.193583 0)
(7.70664 -0.131077 -6.87122e-18)
(4.80755 0.0346211 -3.36204e-17)
(8.3618 0.0903371 0)
(7.37492 0.124975 0)
(7.18563 -0.0745558 1.55609e-17)
(4.74903 -0.15313 3.87804e-17)
(8.47357 0.0307063 1.05216e-16)
(7.25243 -0.0621319 -8.40867e-17)
(7.14055 -0.13656 6.15243e-17)
(4.43562 -0.018237 8.36761e-18)
(8.02607 -0.0515856 0)
(6.70304 0.0526402 6.36439e-17)
(6.93504 -0.140117 -1.00361e-16)
(7.79923 0.163763 -1.83053e-17)
(7.84736 -0.0073367 2.44068e-17)
(4.71661 -0.100549 0)
(8.13744 0.0520929 -5.86229e-17)
(7.12361 -0.0691695 3.13979e-17)
(7.00936 0.0798311 -6.3201e-18)
(7.4997 -0.0500026 9.16729e-18)
(7.86538 -0.127463 5.99585e-17)
(7.4646 -0.0985624 -3.88044e-17)
(7.34042 0.0639643 6.32492e-17)
(7.24751 0.196286 3.14628e-17)
(7.67259 0.0658398 -6.54777e-18)
(7.51797 0.101901 0)
(5.63192 -0.138881 0)
(7.36355 -0.106479 -4.63368e-17)
(6.95417 -0.0921654 -1.92542e-17)
(8.17074 0.107161 0)
(7.91395 -0.122728 0)
(8.1211 -0.116415 0)
(5.12044 0.0299355 0)
(7.69651 -0.0917712 5.44016e-17)
(5.23718 -0.0515781 0)
(7.17384 -0.123528 0)
(7.01594 0.0909089 3.10641e-17)
(6.48229 -0.0376442 -2.29496e-17)
(4.54496 -0.583763 -9.36083e-18)
(7.35649 -0.000432434 0)
(7.65566 -0.0282329 0)
(7.33104 -0.105428 4.12745e-18)
(3.71397 -0.911979 1.86504e-17)
(7.2516 -0.208776 0)
(7.90209 -0.226098 -1.86327e-17)
(4.56728 -0.17734 -5.33777e-17)
(3.40027 -0.779245 0)
(7.12424 0.118994 -4.71882e-17)
(2.28941 -0.512744 0)
(6.99611 0.0138995 -8.77973e-17)
(7.00706 0.0127218 1.16628e-16)
(7.47382 0.054713 -1.62979e-17)
(3.44915 -0.617171 0)
(7.01184 0.0361231 5.63623e-17)
(6.94255 0.0717771 1.24364e-16)
(7.70844 0.018036 0)
(7.79934 0.0200012 -4.45196e-18)
(7.42011 -0.114689 -2.94601e-18)
(8.14874 -0.109388 0)
(3.85897 -0.713368 1.51506e-17)
(3.7615 -0.040839 -3.80244e-17)
(7.12595 0.122346 -5.25555e-17)
(7.02529 -0.358489 0)
(7.44013 -0.228927 0)
(2.17921 -0.312817 3.49489e-17)
(7.32133 -0.0746982 2.50049e-18)
(7.19951 -0.101691 0)
(7.37239 -0.114165 -3.73869e-18)
(6.9745 0.105583 -3.12139e-17)
(7.16353 0.110881 0)
(7.23905 -0.235145 0)
(6.78083 -0.102355 0)
(6.68035 -0.35106 4.20755e-17)
(7.0036 0.00599199 0)
(6.89626 -0.335192 2.66603e-17)
(7.35104 -0.179141 4.23653e-17)
(6.78468 0.186725 0)
(7.02129 -0.0261595 1.39124e-17)
(7.10215 -0.190261 -6.11708e-17)
(7.85762 -0.270201 3.97478e-18)
(8.00628 -0.0366038 1.45571e-17)
(6.92414 -0.221158 -3.82597e-18)
(6.98926 0.128982 0)
(6.77354 0.154742 1.41864e-17)
(6.95105 0.109509 -1.59523e-17)
(6.99997 -0.100897 4.01112e-17)
(8.1666 -0.109554 0)
(6.85345 -0.0754895 0)
(7.53898 -0.0832648 0)
(7.65065 0.235103 0)
(7.40988 -0.111305 3.83384e-18)
(7.58266 -0.145371 -1.2946e-17)
(7.58527 -0.132986 2.75134e-17)
(7.454 -0.115135 0)
(7.29935 -0.0354841 2.63532e-17)
(7.71721 0.127491 -1.93492e-17)
(7.757 -0.215078 -9.26008e-18)
(8.00238 -0.174089 -1.01091e-17)
(8.0277 -0.198648 9.95548e-19)
(7.77527 -0.166096 1.87968e-17)
(7.49366 0.16988 5.97292e-17)
(7.81676 0.113448 -5.06926e-17)
(7.75314 0.203041 5.59066e-17)
(7.64548 0.119115 0)
(4.32733 -0.201055 -2.47065e-17)
(3.98432 -0.0671998 0)
(7.95411 -0.147188 -1.20107e-17)
(7.87832 -0.223107 2.09841e-17)
(7.9392 -0.165303 0)
(7.97916 -0.191412 -6.38892e-18)
(7.86013 -0.216123 0)
(7.91664 -0.126082 0)
(7.95146 -0.184258 0)
(7.90537 -0.161231 -2.29667e-17)
(7.05261 0.00676704 3.63618e-17)
(6.97203 -0.0698858 -3.68797e-17)
(7.563 0.177153 -9.24676e-17)
(0.748972 -0.0579013 -1.69212e-16)
(0.707791 -0.00229667 3.83303e-21)
(4.93647 -0.0751438 0)
(4.7244 -0.00677118 0)
(7.00796 0.0420377 -5.19459e-17)
(7.94319 0.192075 5.00053e-17)
(7.35606 0.0478249 -1.42069e-16)
(6.9804 0.102859 0)
(6.9735 0.0742445 0)
(6.82558 -0.0397396 -1.87626e-17)
(7.02769 -0.0464398 0)
(7.04978 -0.205895 7.92939e-18)
(6.85911 -0.292658 -7.07173e-17)
(5.16594 -0.0322819 5.84937e-17)
(7.07321 0.137439 -4.55448e-17)
(7.28943 -0.219302 -7.12448e-18)
(7.036 -0.309176 -1.58229e-17)
(6.3451 -0.410195 -3.28861e-18)
(6.33619 -0.313853 4.11954e-17)
(6.45363 -0.242004 7.86147e-18)
(7.22179 -0.0968857 7.96262e-18)
(7.34774 -0.129645 0)
(7.06522 -0.0228949 -8.89134e-17)
(6.98558 -0.000607427 4.60905e-17)
(7.34617 -0.257237 -3.92744e-18)
(6.98665 0.0955956 3.2655e-17)
(7.42935 -0.181194 0)
(6.5763 -0.100788 2.68534e-17)
(6.44323 -0.158672 -7.52686e-18)
(7.26002 0.158942 2.61477e-18)
(7.36142 0.127188 -8.8595e-19)
(7.0411 0.148814 0)
(6.84722 0.174527 0)
(7.37508 0.0542823 3.74378e-17)
(7.61655 -0.017942 -1.49505e-17)
(7.46869 -0.1293 0)
(6.78244 0.0256369 0)
(7.60672 -0.0407123 0)
(7.5317 0.0584046 3.8559e-17)
(7.16919 -0.0120015 -4.10486e-17)
(7.37151 0.0688353 -1.10543e-16)
(6.60102 -0.329922 0)
(7.48488 -0.0738882 0)
(7.25624 -0.107997 0)
(7.37269 -0.0357824 0)
(7.91736 -0.118781 0)
(7.74916 -0.118184 0)
(7.93396 0.0677274 0)
(8.13716 -0.0776845 0)
(4.76328 -0.078187 0)
(7.06578 -0.0918986 0)
(4.62483 0.938398 -1.43507e-19)
(6.09858 2.53414 -8.43542e-19)
(3.8555 -0.332872 8.91577e-19)
(6.67254 2.61393 0)
(2.88139 -1.63462 -1.32874e-20)
(2.80794 -1.60901 1.46208e-17)
(6.56668 -3.17503 4.91882e-18)
(6.79019 0.309718 0)
(6.71787 2.24613 0)
(4.20585 -0.966572 -2.14411e-17)
(2.7517 -1.67843 -1.17526e-20)
(3.32275 -1.19894 1.56215e-18)
(3.12473 -0.64058 0)
(2.24171 -5.30125 5.0892e-18)
(7.20765 -1.88082 0)
(4.97237 -4.24033 -7.37604e-20)
(3.31668 -1.18156 1.71637e-18)
(3.7393 -0.70407 4.17589e-22)
(5.16373 -3.16377 -2.01185e-18)
(5.28345 -3.14944 -1.89576e-18)
(3.88252 -0.422889 3.05164e-19)
(3.89096 -0.366193 -3.77546e-19)
(6.72792 0.225776 -9.08653e-17)
(4.2967 -0.306649 0)
(4.22645 -2.98475 -2.99613e-18)
(4.44644 -2.7524 0)
(2.35608 -1.28217 0)
(4.40439 0.572461 -6.95192e-19)
(4.69307 -3.37065 3.9554e-18)
(4.90142 -2.41376 -2.0577e-18)
(6.39355 1.85172 0)
(3.01597 -1.84162 1.65634e-18)
(3.5163 -0.865627 0)
(5.8004 -1.23113 2.16224e-18)
(6.2833 -1.78594 -8.59388e-18)
(5.25191 -2.6064 -3.39456e-18)
(6.01508 2.77152 6.99078e-20)
(6.29094 2.2932 2.2323e-18)
(6.24819 2.39568 -2.9192e-18)
(2.74134 -1.28099 0)
(2.78433 -1.48433 7.50437e-20)
(3.03443 -1.58986 -1.88048e-17)
(2.94672 -1.53935 -2.20237e-20)
(6.22655 -1.70686 -4.49677e-18)
(6.18038 -1.67992 3.70727e-18)
(6.58846 -2.44494 0)
(6.04361 2.46053 3.36801e-18)
(4.55686 -3.79373 -1.75524e-18)
(2.09563 0.898999 -4.20998e-17)
(5.85186 2.7349 0)
(3.03471 -1.65486 0)
(6.30957 -2.65861 9.86239e-18)
(6.49002 1.97611 2.67807e-18)
(6.54404 2.02893 6.26066e-19)
(3.08209 -1.57659 0)
(6.1153 2.59928 -1.88943e-19)
(6.11026 2.6091 1.94822e-19)
(3.07043 -1.50136 9.50357e-18)
(2.76941 -2.17209 2.59041e-19)
(2.70583 -2.31493 2.04496e-18)
(3.96878 -1.1647 4.36139e-17)
(3.76367 -1.1235 0)
(3.14082 -0.779515 0)
(3.24257 -0.84963 5.18285e-19)
(4.44873 -3.1963 1.94555e-18)
(4.08197 -0.289717 0)
(3.44112 -1.18106 -3.90893e-19)
(6.93624 -0.452498 1.96499e-17)
(6.10991 2.60963 0)
(6.58109 0.180352 5.99334e-17)
(6.27341 2.15805 0)
(6.31902 2.21612 0)
(5.26936 -3.91505 0)
(0.73017 -0.36188 1.09745e-16)
(6.87236 0.305329 -9.09706e-17)
(2.99143 -0.462344 -1.00006e-17)
(3.59989 -0.896362 1.34412e-18)
(3.70486 -0.75804 -6.3429e-19)
(4.48273 -3.44034 -1.11411e-18)
(5.49115 -3.71315 -8.47963e-19)
(5.45905 -3.64598 -2.54708e-18)
(6.12824 2.375 4.57636e-18)
(3.56016 -0.967514 -2.19291e-18)
(3.476 -1.10682 8.21334e-19)
(4.66545 -3.12108 -1.74887e-18)
(6.62155 -3.77841 0)
(3.23345 -1.37824 0)
(3.28223 -1.34559 0)
(3.19504 -1.46496 0)
(3.21813 0.361456 -1.74257e-17)
(3.83206 -1.82772 9.3265e-18)
(4.19333 -1.42517 0)
(6.13124 0.0781845 -1.75271e-17)
(6.20943 2.37839 -7.3286e-19)
(6.18125 2.29792 -2.60304e-18)
(6.23139 2.31197 -2.91189e-18)
(6.15775 2.36611 -5.86257e-18)
(3.02134 -1.73626 -2.1093e-17)
(4.34472 -3.64853 7.26131e-19)
(4.41872 -3.70382 -1.60553e-18)
(5.50426 -3.59723 4.04657e-18)
(5.25844 -2.82563 0)
(3.43116 -1.07093 1.47155e-18)
(6.54865 -2.42154 -2.9172e-18)
(6.35324 -2.52322 -6.65645e-19)
(6.48948 -2.19364 2.39e-18)
(3.44431 0.0406064 0)
(3.32409 0.272871 -1.74025e-17)
(3.29907 0.0738491 0)
(5.71858 -3.69 -1.41744e-18)
(6.10767 2.5947 2.06493e-19)
(3.11394 -2.00112 -1.41129e-17)
(3.04127 -1.81035 1.86979e-17)
(3.14483 -1.82427 2.26899e-17)
(2.97865 -1.99402 6.63148e-18)
(6.31925 2.48499 1.36134e-18)
(6.38819 2.45194 -1.78848e-18)
(6.36135 2.42428 4.01469e-19)
(6.36227 2.50061 4.63802e-19)
(4.46011 0.687858 1.35098e-18)
(4.59141 0.952521 -7.61998e-19)
(6.81107 0.2769 -2.91805e-19)
(5.44035 -0.75618 -2.28557e-17)
(2.95975 -0.801014 -2.03379e-17)
(2.93831 -1.04308 0)
(5.93111 -2.29107 -3.84432e-18)
(7.49933 -0.404299 -3.78746e-17)
(2.92281 -1.42255 5.93687e-18)
(5.84613 -0.95277 -2.10798e-18)
(7.18687 -0.25737 6.5767e-18)
(2.93484 -0.65682 0)
(3.02225 -0.640532 1.92406e-17)
(2.99374 -0.567856 6.49158e-20)
(2.97113 -0.696295 -5.53964e-18)
(3.64417 -0.158012 3.22404e-19)
(3.63808 -0.331908 0)
(3.44844 -0.0898927 -6.84379e-18)
(6.11609 2.59174 0)
(6.11141 2.58999 0)
(6.11998 2.57604 5.15621e-19)
(3.34931 -0.513878 0)
(3.1915 -0.522685 3.33703e-17)
(3.15645 -0.175744 0)
(3.1635 -0.396122 -3.57864e-17)
(3.22485 -0.249991 0)
(3.49091 0.485685 -6.48837e-18)
(3.70295 0.186185 3.78205e-17)
(6.1991 0.132641 -6.36882e-17)
(6.72317 2.14574 -1.2667e-18)
(6.24008 2.43492 1.07996e-18)
(6.283 2.47665 -2.16113e-18)
(6.7599 -0.672465 6.01618e-18)
(6.79413 -0.437729 0)
(0.785051 0.289329 0)
(2.78764 -0.621209 -8.48517e-18)
(5.72109 -2.36535 0)
(5.36659 -2.49606 -9.98877e-18)
(7.17939 -0.278087 -1.62317e-17)
(7.19383 -0.261586 1.32524e-17)
(7.14542 -0.320727 0)
(6.02819 2.50801 1.87909e-18)
(6.02694 2.57419 9.90232e-19)
(5.73181 -2.87493 3.40421e-19)
(5.55717 -3.72274 0)
(5.66484 -3.70967 1.83572e-18)
(5.57982 -3.80231 2.04434e-18)
(5.24066 0.162184 1.03499e-16)
(6.55289 -0.536174 -5.58845e-17)
(6.57913 -0.659703 0)
(6.63911 -0.454815 -2.47317e-17)
(4.75018 -2.92279 0)
(5.0023 -2.93961 4.00349e-18)
(4.90126 -3.01177 -9.78269e-21)
(4.8124 -2.88617 -4.01815e-18)
(4.24436 -0.435982 0)
(4.01048 -0.207628 -2.15311e-18)
(3.93459 -0.409106 -3.32083e-17)
(4.25692 -0.293661 0)
(5.16695 -2.99492 1.86766e-18)
(5.303 -3.08971 6.79958e-20)
(5.30144 -2.9345 -1.44519e-18)
(4.22178 0.212003 1.21756e-18)
(4.11882 0.0740235 0)
(4.82393 -2.50272 0)
(4.58531 -2.66564 -4.42665e-18)
(3.97879 0.318956 -5.2065e-19)
(3.71512 0.665019 -8.40498e-18)
(4.31178 -0.62481 -5.39061e-19)
(4.07107 -0.731797 1.83017e-17)
(4.215 -0.755055 -1.17058e-17)
(4.23901 -0.522371 1.05882e-17)
(2.5562 -2.85157 -1.52716e-18)
(6.67862 0.244746 1.09755e-17)
(6.66763 0.214833 0)
(6.88157 0.13784 0)
(6.81531 0.169632 6.33468e-18)
(4.81129 1.37345 0)
(4.69187 1.10134 0)
(2.98121 -0.249281 -2.38066e-17)
(2.97625 -0.13203 2.27806e-20)
(2.90327 -0.276122 1.09761e-17)
(3.4202 -1.32148 0)
(6.556 -2.34009 0)
(5.08873 2.18483 -4.39734e-20)
(5.04192 1.91229 -8.7465e-19)
(4.65028 1.09682 -7.29043e-19)
(4.16918 -3.14565 0)
(3.2091 -1.25814 9.32057e-18)
(3.28414 -1.12253 1.82958e-17)
(3.0853 -1.21876 0)
(3.60422 -0.586775 0)
(3.84607 -0.420888 4.305e-17)
(3.68926 -0.384358 -5.25213e-18)
(3.82286 -0.58324 -3.12163e-17)
(3.16706 -1.5284 1.84216e-17)
(3.3172 -1.40896 0)
(3.22848 -1.35937 -1.93108e-17)
(3.28681 -1.5393 0)
(7.59854 -0.358971 1.31782e-17)
(3.71032 -1.48289 0)
(3.51638 -1.34898 0)
(3.68181 -1.28647 0)
(3.52391 -1.50478 1.54303e-17)
(5.33227 -1.75889 0)
(5.58722 -1.69595 -5.015e-18)
(3.10164 -1.54774 -4.70106e-19)
(3.16918 -1.49219 0)
(3.13878 -1.56279 4.20543e-19)
(3.1368 -1.48117 0)
(6.91457 0.0630735 3.73428e-19)
(6.88122 -0.00574389 0)
(6.52005 0.299557 3.54594e-17)
(5.6054 -2.81268 2.81149e-20)
(5.38025 -2.65914 3.0038e-18)
(5.61947 -2.7171 2.52709e-18)
(5.35451 -2.77504 3.23589e-18)
(6.85886 2.11249 0)
(7.24864 0.443594 -2.32423e-17)
(4.5182 -1.63622 1.93309e-17)
(4.61081 -1.34305 -3.52956e-17)
(7.06605 -0.375699 1.58122e-17)
(7.14532 -0.296169 -1.09643e-18)
(7.07382 -0.346118 -1.04071e-17)
(6.84267 1.37476 3.18131e-18)
(4.07883 -0.209852 -4.26979e-17)
(2.02684 -0.201196 0)
(6.11944 -0.540262 -2.38619e-17)
(6.24053 -0.521536 5.49944e-18)
(6.00549 2.81622 -5.19375e-19)
(4.91028 -3.19433 0)
(4.90345 -3.09054 -8.28022e-20)
(5.03021 -3.12548 2.35176e-18)
(4.81941 -3.13677 2.21343e-18)
(4.29698 -1.31667 0)
(4.51287 -1.00317 -6.11468e-18)
(4.32613 -1.05136 0)
(4.51839 -1.24826 3.8805e-17)
(6.90503 0.111572 0)
(6.91446 0.0758385 1.6058e-17)
(6.90314 0.0933853 0)
(7.00317 0.0725064 5.28012e-19)
(6.99989 0.091384 -2.13899e-17)
(7.61149 -0.19174 0)
(7.28482 -0.238022 -4.13029e-18)
(7.41424 -0.23827 4.67711e-18)
(7.45882 -0.190743 0)
(6.6443 0.166647 0)
(6.75771 0.07758 -7.44527e-17)
(6.72389 0.150245 5.38952e-18)
(6.66077 0.117248 4.60323e-17)
(4.63972 -3.31791 -4.33606e-18)
(4.53345 -3.21255 0)
(4.53525 -3.35016 0)
(4.64077 -3.21577 0)
(6.09165 2.46316 1.78446e-18)
(6.11133 2.50897 -9.82554e-19)
(6.13516 2.42905 1.41006e-18)
(2.93641 -1.12592 0)
(2.85294 -1.23353 7.23018e-18)
(2.86257 -1.15285 -7.59583e-18)
(2.94065 -1.22578 -5.83731e-18)
(6.51695 0.19228 -9.86106e-18)
(6.3966 0.216777 3.69012e-18)
(6.46652 0.162082 9.85871e-17)
(3.11307 -0.403447 -1.39871e-17)
(1.95705 -0.0311073 2.48661e-17)
(6.94226 0.146409 0)
(2.22826 -0.239206 -1.05033e-18)
(5.39523 0.0413341 -1.24133e-16)
(6.99568 0.0208438 6.26494e-17)
(7.01967 0.0757079 2.74601e-17)
(3.22146 -1.6023 -4.35431e-18)
(3.55181 -1.6755 7.69423e-18)
(7.01098 0.116255 7.75109e-17)
(7.01003 0.0842403 8.35914e-17)
(7.00862 0.0912167 -2.75048e-17)
(6.95717 0.201899 1.011e-16)
(6.13057 -1.71946 9.17552e-18)
(7.00144 0.241893 0)
(5.79348 -0.0881136 1.77967e-17)
(2.16528 -0.359791 -5.24641e-20)
(2.90584 -0.429622 0)
(6.77755 0.228877 -6.43697e-17)
(3.10196 -1.53584 0)
(7.4352 0.0167192 -3.61651e-17)
(6.99894 0.14267 5.64233e-17)
(6.82631 -0.00909045 0)
(7.81431 -0.382716 0)
(7.33662 0.337417 0)
(7.32129 0.410431 2.64974e-17)
(2.06708 0.614132 1.42104e-17)
(7.72719 -0.261349 7.28651e-17)
(7.65432 -0.317361 0)
(7.13751 0.176258 1.34029e-18)
(6.85019 0.274922 0)
(5.79627 -1.73536 4.99747e-18)
(5.86103 -0.0719987 1.60269e-17)
(7.25352 -0.173598 -4.42579e-18)
(7.21306 -0.228368 1.16981e-18)
(7.23587 -0.206268 2.03667e-19)
(7.58856 -0.213771 0)
(6.70367 -0.488586 -6.12214e-18)
(6.68836 -0.610224 8.45488e-18)
(8.10866 -0.205422 3.49989e-17)
(8.16639 -0.124844 -3.55435e-17)
(8.08548 -0.121692 7.71002e-17)
(6.94222 -0.102125 5.35536e-18)
(6.80778 -0.0835646 3.92485e-18)
(6.97457 0.179174 3.0295e-17)
(6.96999 0.153688 2.98658e-17)
(7.00056 0.0232431 3.3668e-17)
(7.00303 0.0368085 7.19251e-17)
(6.45327 -0.418001 0)
(4.47829 0.783572 0)
(6.85475 -0.490874 0)
(6.84031 -0.618205 0)
(7.22704 -0.164256 -1.61522e-18)
(6.98198 0.255335 -3.15009e-17)
(6.04017 -0.0775176 -1.03508e-17)
(7.00245 0.170275 -5.77818e-17)
(6.99179 0.210069 0)
(6.99122 0.191793 1.20761e-18)
(1.83849 0.266445 0)
(6.93647 0.113848 -1.57586e-17)
(6.94625 0.102932 1.55653e-17)
(6.21836 -2.36405 4.62197e-18)
(6.33216 -2.17611 0)
(6.27695 -2.07361 1.83145e-18)
(7.40526 -0.334436 -6.66137e-17)
(7.1728 -0.0509518 0)
(8.27607 -0.0197737 0)
(6.50335 -0.0522611 -2.94442e-18)
(6.44782 -0.0392927 -2.17458e-17)
(6.80128 -0.0441039 3.04182e-17)
(4.65 -0.346721 6.55377e-17)
(4.85794 -0.343804 0)
(7.49936 -0.351165 -7.45988e-17)
(7.45075 -0.32854 6.04e-17)
(8.06719 0.0352107 -2.77437e-17)
(8.19207 -0.108189 0)
(6.03116 -0.214206 0)
(7.08234 -6.88941e-05 0)
(7.17682 0.389289 6.91809e-18)
(7.15562 0.339342 0)
(8.07927 -0.127336 0)
(8.27797 -0.0938676 -2.07554e-17)
(1.27005 0.396584 0)
(7.21201 -0.2645 -1.70601e-18)
(7.27346 0.013713 0)
(4.62101 -0.827407 -3.13977e-17)
(7.22219 0.122506 -1.81122e-18)
(7.23218 0.0806043 2.40103e-17)
(0.704008 -0.0578217 -1.14531e-16)
(3.78254 0.326388 1.55026e-17)
(3.64805 0.501414 -9.62634e-18)
(6.79759 0.207229 5.68412e-17)
(6.99731 0.0535187 -3.08832e-17)
(6.99252 0.0717996 -3.21232e-17)
(5.59716 -1.02412 -1.95574e-17)
(6.42829 2.04408 -2.42768e-18)
(6.15997 -0.03299 -3.63939e-17)
(6.0344 -0.0952252 0)
(2.81527 -1.29996 1.26648e-17)
(2.83879 -1.39699 -1.28292e-17)
(6.66853 0.0599001 -4.59133e-19)
(6.56274 -0.0270698 7.70404e-17)
(6.66029 -0.00932846 0)
(6.99943 0.0928186 6.61055e-17)
(7.00233 0.124907 1.95489e-18)
(3.06586 0.813298 0)
(6.96395 0.246185 -6.42827e-17)
(6.60762 0.228058 -5.86406e-17)
(6.57325 0.298694 -3.50285e-17)
(6.86448 0.229773 1.13848e-16)
(6.90261 0.231334 -8.19344e-17)
(6.91988 0.195925 -3.37891e-17)
(7.29972 0.0558486 -5.98945e-17)
(6.28059 -0.0563283 2.48131e-17)
(6.39603 0.0126698 -6.14292e-17)
(6.18494 -0.228897 -1.39968e-17)
(6.29898 -0.138693 -8.62641e-17)
(7.5216 0.00598545 0)
(7.67144 0.0737144 -1.32471e-18)
(7.17622 -0.142438 -1.46205e-17)
(7.87365 -0.00398541 3.44232e-17)
(6.53142 2.12274 1.58191e-18)
(6.9802 0.136998 6.64269e-18)
(7.11962 -0.346644 0)
(7.14792 -0.291388 5.32872e-18)
(4.84795 -0.555723 0)
(5.03445 -0.626123 4.07411e-17)
(7.4671 0.186274 -4.28086e-17)
(7.82244 0.155693 -8.78292e-18)
(7.52286 0.116789 -2.90662e-18)
(7.43676 0.138901 3.79178e-18)
(5.66515 -0.189209 0)
(5.46743 -0.23034 0)
(3.48984 -1.6027 -2.14263e-17)
(3.30386 -1.61807 0)
(3.23101 -1.78931 -1.81367e-17)
(2.90305 -1.75721 -1.59199e-17)
(7.01657 0.0535221 -1.01848e-17)
(6.73414 0.190798 0)
(6.81392 0.181096 0)
(7.55406 0.0189741 0)
(7.88244 0.0224718 -6.76751e-17)
(4.09274 0.126471 -2.90679e-17)
(4.27546 0.0846957 2.45815e-17)
(8.34299 0.0827077 -1.57785e-17)
(8.20949 0.144902 -1.75654e-16)
(8.06886 0.0434447 -6.3827e-17)
(7.14479 0.076422 0)
(7.70707 0.233723 0)
(7.03978 0.065997 0)
(7.42814 -0.0631314 0)
(7.04242 0.18012 -4.85429e-16)
(4.92136 0.0276931 5.46381e-16)
(7.47208 0.164711 9.2553e-17)
(6.42233 -2.9109 0)
(6.47718 -2.78159 0)
(6.98838 0.0248253 -3.12647e-17)
(6.95226 0.0464143 -7.12892e-17)
(7.02188 0.0415706 2.34658e-17)
(6.93702 0.0602635 1.0392e-16)
(7.91453 -0.236862 5.99961e-17)
(5.01334 -0.120047 -4.58799e-17)
(5.17691 -0.179551 -5.89149e-17)
(5.34143 -0.0852223 9.27488e-17)
(6.89455 0.121183 0)
(6.88273 0.144054 0)
(6.85313 0.177638 0)
(6.87434 0.169805 -3.37372e-17)
(6.8326 0.209875 0)
(7.00123 0.0620114 4.95569e-17)
(7.33386 -0.0929739 5.78329e-17)
(7.04906 -0.151525 -4.92105e-17)
(7.56327 -0.325801 1.00658e-16)
(7.66191 -0.268602 -6.66514e-17)
(7.64793 -0.251676 -6.2656e-17)
(7.634 -0.240962 0)
(7.46265 -0.251858 2.4155e-17)
(7.5298 -0.272129 -2.40848e-17)
(4.79691 -0.0791986 -1.4419e-17)
(6.94125 -0.0326409 -8.68245e-18)
(7.85132 -0.223209 2.08253e-17)
(4.99816 -0.496002 0)
(5.16858 -0.437579 -2.61812e-17)
(5.37226 -0.439472 -4.5067e-17)
(4.34303 0.688595 5.45052e-18)
(4.38071 0.772431 4.78029e-18)
(6.40094 0.0738351 3.04189e-17)
(6.30527 0.101009 0)
(3.50011 -0.948224 -3.21126e-18)
(3.41811 -1.11578 0)
(7.69653 -0.100239 -1.31598e-18)
(7.85084 0.0307068 0)
(7.77725 0.110145 7.84567e-19)
(4.65757 1.09407 1.8247e-18)
(4.67171 1.1188 -7.22006e-21)
(5.06484 -3.43625 3.08098e-19)
(5.08405 -3.49974 -2.77046e-19)
(2.74076 -0.99297 0)
(5.25018 2.52662 -5.18809e-19)
(6.9611 -0.222277 -2.17788e-20)
(5.76337 0.616726 0)
(6.10617 0.515276 6.25024e-20)
(5.94942 0.328673 -1.5226e-19)
(2.67581 0.38051 0)
(5.97992 -2.77112 -2.12333e-19)
(8.51441 1.01738 -7.4379e-19)
(6.86961 0.106532 8.94653e-20)
(7.71136 -0.384094 1.23427e-18)
(6.04763 3.05358 1.86706e-19)
(2.77811 0.397665 4.2403e-18)
(4.35679 -4.42478 7.84992e-19)
(6.55522 -3.79036 0)
(3.39458 -1.08466 0)
(8.38718 0.999014 0)
(4.25122 -4.15198 0)
(4.29759 -4.21205 0)
(5.92853 2.76391 4.36498e-20)
(5.93776 2.75371 0)
(6.14303 -0.0459232 1.10785e-19)
(6.40526 0.434454 -2.37819e-20)
(6.38735 0.502537 2.69634e-20)
(5.7885 0.470567 8.71659e-20)
(7.00948 -1.73023 6.57608e-20)
(7.03841 -1.799 3.14044e-20)
(5.01874 -4.50632 8.03558e-19)
(5.9769 0.309025 -8.78878e-21)
(6.01557 0.254107 0)
(6.43425 0.880474 1.4695e-20)
(6.55495 0.400454 -7.29237e-21)
(6.5364 0.466071 -8.75516e-21)
(6.40824 0.523177 0)
(6.46829 -2.66311 0)
(6.46385 -2.61488 -2.42785e-21)
(2.67501 -2.38381 1.20332e-18)
(6.01488 0.692892 6.89725e-20)
(6.01981 0.623025 -2.08346e-20)
(4.10511 -3.23172 0)
(1.47456 -1.91498 3.62664e-17)
(5.15822 2.36163 3.76393e-19)
(5.18078 2.38159 -1.81761e-20)
(2.6858 -0.0358391 4.5759e-18)
(5.67539 -1.8362 -1.36635e-17)
(5.80191 2.50749 7.27554e-19)
(7.20132 0.740327 1.70431e-19)
(5.91059 -4.05963 -1.58544e-19)
(2.47255 -1.02923 -1.64862e-18)
(6.10199 2.4891 0)
(6.19577 2.52707 8.17459e-20)
(6.11821 -2.90582 9.33122e-20)
(4.67777 1.95116 -2.81893e-20)
(6.41278 -3.71374 -1.91719e-19)
(6.42188 -3.69142 5.38443e-19)
(6.06523 -2.19139 0)
(6.92244 -1.98708 0)
(6.80777 -2.24345 -7.24355e-20)
(6.34722 2.73662 5.54017e-20)
(6.55325 0.108983 2.95486e-20)
(6.98915 -2.08469 4.53794e-21)
(6.07251 2.65977 0)
(4.90363 0.36075 0)
(7.10352 0.05919 0)
(6.01617 -2.87259 -6.13092e-20)
(2.44053 -3.54654 -2.53072e-20)
(2.4648 -3.29042 8.4485e-19)
(6.89571 -0.86197 0)
(6.92161 -0.970839 8.14794e-18)
(5.44643 -4.18657 -7.72599e-19)
(6.30963 2.62348 7.72118e-20)
(2.87366 -2.12226 6.90354e-19)
(6.69092 0.469945 -1.23516e-19)
(5.08078 -4.66106 0)
(6.00239 3.0843 0)
(5.95911 3.05707 -6.80116e-19)
(5.82627 2.55847 0)
(5.36443 -3.4929 -4.46015e-18)
(6.03659 3.35433 0)
(6.20642 2.73081 -9.43267e-20)
(6.14241 0.665059 0)
(4.64131 0.897294 2.61825e-19)
(4.60584 0.864632 1.28591e-19)
(5.92458 -0.0445065 2.81453e-19)
(6.64693 0.492684 0)
(6.62868 0.547959 0)
(6.66848 0.526139 1.16271e-19)
(5.85455 -2.86348 8.64571e-18)
(6.23039 0.911869 1.01697e-20)
(7.29681 -0.879179 0)
(7.26165 -0.806421 -4.09704e-20)
(2.38965 -2.03803 5.57106e-18)
(6.28452 0.402499 -2.51914e-20)
(6.2845 0.460661 0)
(2.80975 -0.19849 6.65824e-18)
(2.87176 -0.0284547 0)
(7.2862 -0.470863 -3.41575e-19)
(7.26609 -0.419612 -2.14428e-19)
(5.81391 3.07792 -7.96719e-20)
(6.57634 -3.67621 2.29428e-18)
(3.27223 -1.25689 9.35681e-19)
(6.1773 2.46376 -5.66626e-20)
(6.21385 2.65448 3.66955e-19)
(6.22546 2.61657 1.91406e-18)
(7.18596 -1.28476 -4.82323e-21)
(2.65767 -4.40936 6.80874e-18)
(6.35579 0.500877 5.43173e-20)
(6.36871 0.437306 -2.72236e-20)
(6.84688 2.84759 1.77702e-19)
(6.94533 -2.11654 0)
(6.84345 -2.19563 4.27238e-20)
(4.8452 -4.8548 1.18236e-18)
(1.43245 -1.19081 -7.48826e-18)
(5.04337 1.74007 8.82489e-19)
(7.41234 -1.18009 4.12938e-19)
(5.62046 -3.10099 -1.47952e-19)
(5.63388 -3.15752 3.68095e-19)
(5.11547 2.04599 -3.93998e-19)
(5.15996 2.28702 -5.42636e-19)
(6.99929 -2.01835 -3.93046e-21)
(6.97945 -1.97988 2.93171e-20)
(7.12843 -4.34191 0)
(7.7063 -5.08121 0)
(7.10963 -1.2524 9.46403e-20)
(7.23642 -0.823236 3.2828e-19)
(6.72547 0.833693 0)
(4.74308 1.27891 -1.77173e-18)
(6.4282 0.746943 0)
(7.42821 -3.46334 6.18384e-19)
(3.17958 -2.85477 1.29116e-17)
(7.43398 -4.5226 0)
(6.06348 2.56687 -1.067e-19)
(4.28161 -4.35715 -2.81638e-19)
(4.30345 -4.42197 1.2353e-18)
(6.08705 2.71987 0)
(6.09012 2.69963 -4.12238e-19)
(6.76475 2.30458 0)
(4.10842 -0.692866 0)
(6.11385 -0.142932 -6.62016e-20)
(8.33588 -2.63181 1.09107e-18)
(6.49516 -2.12553 0)
(6.57927 -2.27038 0)
(6.17168 0.281453 -7.15491e-20)
(6.27836 -3.29656 2.11265e-19)
(5.03135 -0.682472 1.51651e-17)
(6.66208 -1.83011 -1.06935e-21)
(7.08772 -3.71546 -1.29947e-18)
(7.12426 -3.67334 0)
(5.8099 1.22025 0)
(2.17198 -4.02555 1.06329e-17)
(4.69062 0.979508 -9.881e-19)
(6.18501 3.14019 -6.64883e-20)
(6.25335 -2.62003 6.27512e-20)
(5.73488 2.95279 0)
(4.91218 1.49446 3.3413e-19)
(4.86346 1.29852 6.54806e-19)
(6.82861 -1.36738 -8.27786e-20)
(5.72451 0.639626 1.53386e-19)
(6.74447 -2.05434 -5.57232e-21)
(6.75456 -2.11739 6.08832e-20)
(6.46539 0.989014 -3.45706e-20)
(6.17215 -0.0912581 -1.19132e-19)
(6.3198 0.292319 0)
(6.36023 0.305572 3.72078e-20)
(4.96446 -3.50256 0)
(4.70551 -3.50291 0)
(3.36542 -1.11921 0)
(2.83409 0.505356 -3.49641e-18)
(2.79548 0.472726 0)
(2.81531 0.614611 0)
(6.85126 -0.846814 1.8856e-20)
(6.29129 2.60928 -3.88298e-20)
(6.85789 2.88918 1.0227e-19)
(3.12424 -1.88651 0)
(3.05879 -1.88468 4.23517e-19)
(4.91113 0.297701 0)
(6.10815 2.50598 3.43777e-21)
(5.18174 2.13729 0)
(2.67319 -0.992447 4.65886e-18)
(4.38548 -0.800088 1.15197e-18)
(4.45778 -0.830562 -4.91335e-20)
(6.75328 0.294759 -1.22844e-19)
(6.80007 0.640897 9.22131e-18)
(6.72563 2.82049 4.69518e-19)
(4.16296 -0.546867 0)
(4.15877 -0.63276 0)
(6.22762 1.65635 -2.05811e-21)
(6.09537 2.52868 0)
(6.07466 -3.95932 0)
(6.17684 -1.30743 -9.3625e-21)
(6.38547 -3.90645 -6.95264e-19)
(5.9724 0.514029 -7.31133e-20)
(5.97548 0.437909 1.08605e-19)
(3.45234 -0.997324 -5.3619e-19)
(6.46587 -2.1615 2.31377e-20)
(6.74351 -5.32079 -3.32006e-19)
(6.07512 2.49832 7.57746e-20)
(6.07817 -3.78117 4.15588e-19)
(6.53058 -0.211351 1.14968e-20)
(6.49443 -0.217465 -7.25557e-20)
(5.17701 2.16221 -7.25011e-19)
(4.57859 0.405837 0)
(4.61742 0.505974 -6.62744e-21)
(4.63745 -4.38818 5.31126e-19)
(6.48099 0.37155 0)
(6.01241 2.56243 2.58977e-19)
(5.10151 -4.49636 0)
(5.13171 -4.57323 8.34723e-19)
(4.36278 0.219542 -1.234e-19)
(6.22137 0.43375 0)
(6.24847 0.47542 0)
(6.03539 2.52921 3.7809e-20)
(6.12076 2.46884 6.07692e-20)
(6.1508 2.46043 8.02914e-20)
(4.43753 -4.73898 -3.27858e-19)
(6.85984 0.261282 -1.13077e-19)
(6.88137 0.296978 0)
(8.28519 -2.68932 2.12181e-18)
(6.90639 -2.09736 -5.04464e-20)
(6.89859 -2.0346 -2.16783e-20)
(6.8475 -2.14279 1.14645e-19)
(5.74248 -0.32993 4.32543e-20)
(5.74241 -0.255976 0)
(5.96893 -0.469235 0)
(5.95804 -0.525697 0)
(6.95314 -1.30723 0)
(6.96476 -1.2648 0)
(7.02584 0.937461 2.34766e-19)
(5.40537 3.06579 2.90329e-19)
(6.26917 2.7783 -1.69404e-19)
(6.30094 2.75133 0)
(6.68785 -3.27601 3.31677e-18)
(5.894 -1.17009 0)
(7.48491 -5.06316 0)
(4.40153 -0.0588793 4.05418e-19)
(6.02189 -3.88187 -4.86353e-19)
(5.90037 -3.9524 1.01322e-18)
(7.43023 -4.85309 2.59942e-19)
(6.06859 -2.33255 2.2203e-19)
(6.76725 -3.89945 0)
(6.04447 2.52537 7.51871e-20)
(6.01976 2.54938 0)
(7.5586 -2.11423 -2.90729e-19)
(7.41656 -1.51615 -4.25674e-19)
(6.28748 0.597336 1.71394e-20)
(3.96662 -0.78112 0)
(6.95574 -5.15499 5.58961e-19)
(5.63326 2.61069 0)
(5.58081 2.58445 3.22775e-18)
(6.11577 -4.02334 -1.12154e-19)
(4.42547 -0.44169 7.87522e-19)
(6.72359 0.935554 0)
(1.66799 -1.6552 0)
(6.46969 1.66912 0)
(6.382 1.76661 0)
(6.1439 -2.33055 3.33695e-19)
(6.12319 0.771954 2.5221e-20)
(6.09897 0.74075 -7.23478e-21)
(6.13789 2.62796 4.18025e-19)
(6.12228 2.64375 -5.61151e-20)
(6.31716 -0.0581226 0)
(6.01473 2.42289 -3.50759e-18)
(7.50568 0.522134 0)
(7.33597 0.506379 7.3052e-19)
(5.90719 0.400347 0)
(5.83242 2.78694 0)
(5.83144 2.88815 8.33234e-20)
(6.64125 -1.69607 3.61834e-20)
(6.14955 2.88373 8.68154e-20)
(6.12429 2.97731 0)
(6.41071 -2.03293 -1.48786e-19)
(7.25719 -1.36784 1.01739e-19)
(7.30361 -1.23547 2.69462e-19)
(5.92818 2.80071 -1.51581e-19)
(5.93742 2.76523 0)
(6.57245 0.421229 -6.11626e-22)
(6.96999 0.724273 -1.36231e-20)
(6.96737 0.798912 1.25918e-20)
(6.31834 -2.25877 -2.05279e-19)
(6.25599 -2.34705 0)
(2.17784 -1.1471 0)
(4.56628 -4.36027 -9.61449e-19)
(4.44603 -4.49212 1.11061e-18)
(6.7251 -2.33347 -2.04926e-20)
(3.01971 0.435927 0)
(6.30604 2.65516 -5.73351e-21)
(6.28512 2.67586 -8.18501e-20)
(4.28486 -4.60957 0)
(4.20231 -4.63702 -2.41859e-18)
(6.40385 -2.2387 -1.55208e-20)
(6.42243 -2.17198 6.35207e-20)
(6.34138 -2.22924 1.8244e-19)
(4.29154 0.275473 1.19581e-18)
(4.36584 0.479939 6.74308e-19)
(6.09375 -3.71636 1.43639e-18)
(6.74163 0.00256148 4.92108e-20)
(6.35318 -0.164037 -5.56036e-21)
(5.90783 -3.90052 0)
(5.85474 -3.88322 0)
(5.96843 -3.86223 0)
(2.50421 -3.13974 7.21764e-19)
(2.48638 -3.1543 2.03914e-18)
(5.74879 -1.25233 0)
(6.36845 -1.86305 -5.771e-20)
(7.64569 -0.104313 -1.35584e-19)
(7.68656 -0.132711 0)
(5.97119 -1.78389 -2.53035e-19)
(5.98666 -1.83854 1.61958e-19)
(6.55317 -3.70444 -1.51116e-18)
(6.50222 -3.69858 1.2532e-18)
(6.61572 -3.73063 0)
(4.69806 0.862635 4.18063e-19)
(4.79041 1.05966 3.14517e-19)
(3.97878 -4.66152 0)
(6.27325 -3.85557 -9.08287e-19)
(6.29142 2.89576 1.04478e-20)
(5.858 2.24895 4.91892e-18)
(4.79572 -4.63698 8.89582e-19)
(4.83501 -4.70926 0)
(2.65977 -3.29437 -8.50836e-18)
(7.36165 -0.949011 4.11237e-19)
(6.97797 -0.192712 2.02994e-19)
(7.02781 -0.175749 7.12077e-20)
(6.01384 0.384936 -1.83105e-19)
(2.71539 -0.17827 -6.63208e-18)
(6.52149 3.20193 0)
(6.59456 3.18492 0)
(6.74324 -0.770865 -1.12324e-17)
(6.81033 -0.869343 0)
(7.02511 -2.90128 0)
(7.26007 -0.613658 -3.58311e-19)
(7.23175 -0.558354 5.37343e-19)
(7.36543 -1.45735 0)