/*--------------------------------*- C++ -*----------------------------------*\
  =========                 |
  \\      /  F ield         | OpenFOAM: The Open Source CFD Toolbox
   \\    /   O peration     | Website:  https://openfoam.org
    \\  /    A nd           | Version:  6
     \\/     M anipulation  |
\*---------------------------------------------------------------------------*/
FoamFile
{
    version     2.0;
    format      ascii;
    class       volScalarField;
    location    "1400";
    object      nut;
}
// * * * * * * * * * * * * * * * * * * * * * * * * * * * * * * * * * * * * * //

dimensions      [0 2 -1 0 0 0 0];

internalField   nonuniform List<scalar> 
29884
(
0.276374
0.225673
0.122062
0.155995
0.15636
0.129646
0.194455
0.263938
0.213456
0.141145
0.153475
0.141699
0.15303
0.287477
0.280093
0.191867
0.287385
0.266243
0.279556
0.172517
0.278012
0.118572
0.142525
0.140649
0.144303
0.155028
0.194346
0.219137
0.15019
0.253541
0.148661
0.162944
0.195263
0.185293
0.143751
0.147362
0.249451
0.166596
0.179345
0.187922
0.231666
0.18485
0.176329
0.200848
0.183851
0.166892
0.175611
0.176406
0.136634
0.170883
0.167685
0.174262
0.192952
0.27522
0.26333
0.267634
0.187097
0.284216
0.262155
0.266545
0.198561
0.190442
0.135277
0.171052
0.166635
0.172805
0.280476
0.204287
0.302657
0.211425
0.141248
0.149598
0.143864
0.10938
0.318039
0.280964
0.234086
0.231193
0.225907
0.211584
0.180419
0.197652
0.1137
0.142314
0.1195
0.0973316
0.148766
0.156913
0.139529
0.0721597
0.145013
0.156868
0.100602
0.0636943
0.151749
0.000394831
0.139828
0.139901
0.149682
0.0663189
0.139776
0.139242
0.169838
0.177337
0.153477
0.196398
0.0782227
0.0766892
0.153785
0.138954
0.162733
9.92603e-05
0.135892
0.119006
0.14181
0.142054
0.149601
0.111811
0.147748
0.136955
0.139772
0.141107
0.161395
0.140065
0.136816
0.262144
0.225289
0.203648
0.3011
0.147682
0.14302
0.147267
0.254184
0.237519
0.129427
0.144128
0.165758
0.15216
0.163683
0.163838
0.155586
0.162004
0.173219
0.157289
0.170888
0.173961
0.160452
0.165437
0.178558
0.173865
0.171479
0.0948391
0.0832308
0.183595
0.248977
0.215645
0.199029
0.175184
0.229504
0.201321
0.189194
0.156089
0.154274
0.172915
0.000283281
0.000279806
0.204647
0.160431
0.139502
0.139498
0.21218
0.139204
0.139038
0.115122
0.117903
0.151812
0.144016
0.188956
0.14264
0.155998
0.145678
0.128988
0.131186
0.135164
0.117698
0.132543
0.139601
0.139234
0.155531
0.150275
0.155967
0.141515
0.136678
0.143536
0.146338
0.146724
0.141192
0.146816
0.151877
0.149793
0.218063
0.177387
0.15369
0.142321
0.150031
0.136272
0.144677
0.128376
0.139622
0.185181
0.174589
0.215533
0.219199
0.19485
0.257701
0.0433761
0.101009
0.0374091
0.112337
0.0392131
0.0372157
0.0538841
0.137488
0.119742
0.0855721
0.0348538
0.0409335
0.0542824
0.00640252
0.045234
0.0480769
0.0377912
0.0479199
0.0430064
0.0459903
0.0466403
0.0451641
0.138043
0.145303
0.0182411
0.0285749
0.000674277
0.0421948
0.0281843
0.043011
0.123463
0.0402464
0.0381242
0.0958647
0.0692111
0.048821
0.0784111
0.114614
0.111393
0.0374314
0.0373678
0.0445056
0.0418467
0.0824676
0.0865754
0.059954
0.102874
0.0180143
0.000951596
0.0826134
0.0338763
0.0527904
0.122829
0.122491
0.0337968
0.087411
0.0888407
0.0474163
0.0303704
0.0271604
0.0769334
0.0716925
0.0544041
0.0578086
0.023679
0.151047
0.0460189
0.129564
0.0905784
0.138261
0.11682
0.116584
0.0304853
0.00022613
0.137788
0.0488303
0.0463746
0.04725
0.0208491
0.0399299
0.0405759
0.108579
0.0461813
0.0460629
0.031634
0.0574875
0.0416381
0.0430764
0.0419864
0.0538557
0.0599265
0.0756183
0.131592
0.111225
0.112149
0.112871
0.110383
0.0422335
0.0139595
0.015218
0.0435523
0.047634
0.0431821
0.0535186
0.0529052
0.0599945
0.0639172
0.0586543
0.0588148
0.0455525
0.0896963
0.041139
0.0422668
0.0443988
0.0392095
0.111301
0.11283
0.112968
0.111382
0.0418081
0.0403779
0.137692
0.0842153
0.0479011
0.046145
0.0531534
0.121286
0.0424369
0.111772
0.13571
0.046723
0.0506778
0.0489919
0.0483653
0.0723672
0.0715702
0.0654857
0.0873777
0.0883219
0.0859818
0.0627433
0.0572354
0.0543326
0.0554812
0.0578403
0.0635612
0.0739205
0.132649
0.121312
0.110035
0.110219
0.120628
0.133064
0.000467269
0.0405889
0.0529854
0.0504473
0.137031
0.144358
0.12948
0.100211
0.0956646
0.0540725
0.0409627
0.0432747
0.0394757
0.117204
0.126863
0.122683
0.131574
0.0365136
0.0421525
0.0390961
0.0392604
0.0892033
0.0854296
0.083737
0.0913259
0.0453599
0.0470744
0.0481949
0.0435763
0.042381
0.0412317
0.0341733
0.0833773
0.071078
0.0924754
0.084969
0.0883228
0.0898951
0.0201247
0.137253
0.138478
0.139455
0.13871
0.0404806
0.0421742
0.0478617
0.0471194
0.0451248
0.0597796
0.060521
0.034076
0.0387909
0.0393028
0.0141729
0.0535502
0.0569682
0.0506631
0.071963
0.0796112
0.0740315
0.0765349
0.0503231
0.0555698
0.0533774
0.0524293
0.130049
0.0645306
0.0620877
0.0667102
0.0605291
0.0496635
0.0521891
0.0392675
0.0410682
0.0408135
0.0393688
0.151338
0.150009
0.135425
0.0529144
0.0505353
0.0528566
0.0496779
0.122056
0.137934
0.0756795
0.0852783
0.130593
0.145303
0.139428
0.130507
0.151799
0.00585437
0.124282
0.125695
0.0758441
0.036527
0.0386474
0.0404038
0.0355054
0.0818539
0.0907346
0.0867358
0.0863033
0.137944
0.137759
0.138013
0.13967
0.139609
0.165826
0.151193
0.157586
0.158981
0.140582
0.144567
0.142489
0.142428
0.0276471
0.0257874
0.0243923
0.0282759
0.104217
0.103073
0.106696
0.0449691
0.0421686
0.0422047
0.0446664
0.136948
0.134699
0.136203
0.000671717
0.0043697
0.13867
0.0107014
0.119868
0.139543
0.138717
0.000941431
0.00128602
0.139032
0.139053
0.139224
0.138863
0.0643742
0.138503
0.121616
0.000261686
0.000316273
0.137313
0.0356496
0.229789
0.139316
0.255885
0.126317
0.140697
0.138868
0.000658897
0.141473
0.134199
0.140305
0.137787
0.0540602
0.122216
0.137907
0.123198
0.134781
0.144575
0.129642
0.124453
0.170464
0.210861
0.240706
0.104469
0.104156
0.139048
0.139029
0.139749
0.139589
0.130142
0.0057863
0.128512
0.12183
0.104678
0.139119
0.113902
0.139111
0.13909
0.139058
0.00271481
0.138409
0.138624
0.0532548
0.0570062
0.0570869
0.122615
0.243798
0.209496
0.123597
0.119663
0.12412
0.102017
0.107251
0.127662
0.12841
0.184429
0.204817
0.128505
0.252048
0.138236
0.138338
0.253168
0.20708
0.000866684
0.126565
0.261385
0.0962773
0.141821
0.142992
0.000361697
0.0762939
0.0699767
0.137486
0.139572
0.139364
0.108235
0.12108
0.131269
0.129547
0.0399772
0.0398936
0.144041
0.141467
0.144999
0.139523
0.139266
0.00102183
0.138923
0.137335
0.136086
0.137807
0.138065
0.138286
0.183992
0.133341
0.136257
0.130146
0.132745
0.160403
0.166213
0.199388
0.17709
0.121022
0.137554
0.133445
0.14146
0.133643
0.125061
0.14577
0.159891
0.150052
0.146694
0.123354
0.119495
0.0567837
0.0522147
0.0483095
0.0388654
0.139017
0.140657
0.142129
0.253609
0.194605
0.0872259
0.0935301
0.200832
0.172037
0.196872
0.145544
0.159306
0.153776
0.164521
0.234713
0.189105
0.181579
0.052973
0.0522228
0.138767
0.138571
0.139562
0.138293
0.157133
0.11143
0.114764
0.118417
0.137581
0.138188
0.137559
0.137645
0.137238
0.139674
0.162094
0.153526
0.132954
0.13965
0.142582
0.145235
0.135678
0.136271
0.212147
0.267771
0.237917
0.109279
0.113604
0.116069
0.00432097
0.00471994
0.13615
0.133526
0.0654136
0.0612272
0.165914
0.16877
0.162049
0.0319369
0.0302847
0.0596795
0.059213
0.0379245
0.0387127
0.0439004
0.0775486
0.0733304
0.0758245
0.0292893
0.0672928
0.00609782
0.0424986
0.0180692
0.0608593
0.0347667
0.00655919
0.060337
0.0347173
0.00783981
0.00657598
0.00702595
0.0896753
0.090014
0.0720776
0.0628292
0.0631631
0.0770915
0.0509091
0.0500373
0.01678
0.0754795
0.0747118
0.0542046
0.0559607
0.0559273
0.0622315
0.0616394
0.0618796
0.0290136
0.0755506
0.075383
0.0108556
0.00282211
0.0350925
0.0368955
0.0329091
0.0925322
0.0947309
0.0257666
0.0385583
0.0266844
0.0817703
0.0769794
0.0660213
0.0104138
0.0591286
0.0594973
0.0678034
0.0528546
0.0555831
0.0613977
0.0594604
0.0513306
0.0944412
0.0639041
0.0326716
0.0668249
0.0132536
0.0158791
0.106479
0.0977877
0.0280863
0.067417
0.0239824
0.0458918
0.0159137
0.0605488
0.0626233
0.092589
0.00157155
0.0454028
0.0711747
0.0722633
0.0463931
0.0453715
0.0747202
0.0479205
0.0483094
0.0464954
0.00155111
0.0677107
0.0366637
0.0373977
0.0221014
0.0675697
0.0674338
0.0406366
0.0423017
0.0314352
0.0320017
0.0637843
0.0605116
0.0382895
0.0764376
0.0735481
0.104576
0.0446597
0.00842212
0.0648754
0.0648156
0.0354203
0.0524147
0.05471
0.0109667
0.00164463
0.047311
0.034885
0.0660014
0.0657423
0.0412482
0.0386624
0.0511172
0.0517107
0.0376979
0.00937475
0.0473898
0.0388367
0.0384453
0.029302
0.0577231
0.0355234
0.00143751
0.0250117
0.0888357
0.00575938
0.00579708
0.0960136
0.0960488
0.118767
0.056572
0.07232
0.00957807
0.0778933
0.0684233
0.0716751
0.0571098
0.0396122
0.0591013
0.0477309
0.0451373
0.0794055
0.00676248
0.013438
0.0518245
0.0651091
0.07045
0.0466228
0.0491493
0.0555822
0.077377
0.0571491
0.0567497
0.0501908
0.071379
0.0670351
0.0654158
0.0580148
0.0552767
0.0402402
0.0363216
0.034907
0.0342445
0.0536423
0.0690057
0.0340294
0.0433123
0.0416768
0.0647224
0.0828915
0.0471606
0.0348428
0.0616597
0.0626838
0.0458305
0.136192
0.107642
0.0563276
0.0571562
0.0555481
0.0851427
0.0444088
0.0682141
0.052998
0.0760947
0.0759465
0.0346297
0.0626165
0.0235777
0.0823068
0.0499588
0.0620782
0.0629814
0.0434698
0.0558948
0.0554762
0.041658
0.135313
0.0874471
0.0179145
0.0174434
0.0515318
0.0700191
0.0690101
0.0837398
0.0787147
0.0770279
0.0335722
0.0410229
0.0385757
0.0105372
0.0534673
0.0536561
0.0547138
0.0741424
0.0743687
0.072735
0.0726212
0.052204
0.051556
0.0292806
0.0637266
0.0648024
0.063898
0.0530306
0.0709396
0.014086
0.0562651
0.0458384
0.0413892
0.0193637
0.0674467
0.0620462
0.0851003
0.0859815
0.0341232
0.0373607
0.0670863
0.0549091
0.0253532
0.0868896
0.0871975
0.0435339
0.0601927
0.0378123
0.00506337
0.125952
0.124261
0.0668076
0.0726445
0.0736658
0.0820801
0.0831024
0.0677678
0.103571
0.0199436
0.0235094
0.0764846
0.0795012
0.0733541
0.0596881
0.0659953
0.0620327
0.0636361
0.0420247
0.0399716
0.0895902
0.0900026
0.0538142
0.0311964
0.0310648
0.0647889
0.0653632
0.0161594
0.0110412
0.00786384
0.0574952
0.0446066
0.0668048
0.0676796
0.00481587
0.00414283
0.0635748
0.0633306
0.0644076
0.0458924
0.0435932
0.0526082
0.0513711
0.0670026
0.04303
0.0425017
0.0453691
0.016581
0.0174024
0.105061
0.0647216
0.0187957
0.0179425
0.0696434
0.0693606
0.0606497
0.060257
0.0611195
0.0515661
0.0511468
0.00441074
0.051917
0.0583834
0.105883
0.0121955
0.0120866
0.0171126
0.0345898
0.0424307
0.0396554
0.0751306
0.0351976
0.0944142
0.0957223
0.115747
0.110033
0.0513942
0.0344821
0.035206
0.0389144
0.0402567
0.100663
0.1001
0.0988735
0.048903
0.0535002
0.0418037
0.0114225
0.0174077
0.063056
0.0249935
0.0258942
0.0522935
0.0532423
0.0909368
0.0504256
0.0512353
0.0503927
0.0464509
0.067238
0.0675895
0.0666642
0.068076
0.0689561
0.0516192
0.0706342
0.00689457
0.0217446
0.0256385
0.0150699
0.0154247
0.0503564
0.0590577
0.0461532
0.0490261
0.0581065
0.0581392
0.0580077
0.0587706
0.057118
0.048959
0.0476366
0.0335848
0.0364468
0.034372
0.0662606
0.0667422
0.0655662
0.00417182
0.065475
0.10618
0.103592
0.0654838
0.0646854
0.0656297
0.0641672
0.065421
0.0398359
0.0418794
0.0411874
0.040458
0.0584078
0.0541236
0.0424931
0.0950844
0.0945764
0.0944046
0.0610039
0.0885797
0.0300289
0.0249241
0.0215149
0.0314314
0.0294735
0.0333122
0.105539
0.0544829
0.0551093
0.0745251
0.107017
0.104133
0.0624618
0.0966873
0.0502629
0.0488356
0.0499773
0.0439339
0.0425992
0.0448
0.0852972
0.0450839
0.0717467
0.0718868
0.104607
0.0433413
0.0773213
0.0770897
0.0772186
0.0382216
0.000964957
0.0588001
0.0487973
0.0473438
0.0121474
0.000402671
0.102199
0.0526531
0.107913
0.0494804
0.0503849
0.0782204
0.0571968
0.0795902
0.112542
0.0156866
0.0763694
0.0760239
0.0787331
0.0329957
0.101205
0.0998841
0.102146
0.0669331
0.0676633
0.000669926
0.0506503
0.0495554
0.100177
0.102895
0.0981638
0.000778884
0.000799964
0.0922355
0.0239568
0.02045
0.0470756
0.0491426
0.048541
0.0476361
0.0878937
0.0303431
0.0293571
0.0542222
0.000607481
0.0711477
0.0714097
0.0805101
0.0792765
0.0664743
0.017313
0.0646235
0.0632055
0.0983803
0.0986595
0.017477
0.0861543
0.0868287
0.086818
0.0604441
0.0604387
0.0739624
0.0872696
0.0633678
0.0544477
0.00199499
0.043539
0.0611762
0.000567774
0.0359874
0.0918377
0.0544978
0.0052975
0.0487252
0.0472926
0.0610855
0.0620797
0.0876597
0.0836567
0.0590517
0.0598948
0.0563213
0.0777267
0.0789037
0.0772703
0.0770829
0.0765549
0.00095112
0.024009
0.00050503
0.0572039
0.00516503
0.135992
0.136203
0.136309
0.135968
0.066212
0.0555974
0.0556103
0.137792
0.138124
0.0574681
0.0788017
0.0772184
0.0770407
0.044984
0.0633008
0.0678301
0.0695423
0.093575
0.0897418
0.0483977
0.0451328
0.0460105
0.000535197
0.0347781
0.0358337
0.0366948
0.0341144
0.0762645
0.076311
0.0327423
0.0936823
0.095206
0.0770889
0.0547019
0.0552452
0.0520384
0.0444051
0.0426755
0.0457014
0.0315715
0.0306016
0.127992
0.0587839
0.0376414
0.0373278
0.0655476
0.0663587
0.0927215
0.0927449
0.0934778
0.092026
0.0728451
0.0727745
0.0626425
0.058052
0.0582335
0.0578788
0.0984819
0.0962548
0.000312225
0.0444724
0.0452541
0.0169624
0.0142711
0.000438819
0.000658203
0.000629997
0.0399402
0.0393451
0.00836563
0.00877123
0.0921543
0.0757807
0.0842424
0.0586414
0.0392938
0.0166165
0.0159404
0.0182987
0.0571081
0.055667
0.0574467
0.0558999
0.000443655
0.000764188
0.000798903
0.0011751
0.00936645
0.0127009
0.0350392
0.0339779
0.000857954
0.0445936
0.0259346
0.0922334
0.0920047
0.0945477
0.0912578
0.0919415
0.0909696
0.105349
0.106898
0.104233
0.102513
0.0725034
0.0496096
0.0523931
0.0489965
0.0527004
0.0533569
0.0509723
0.116355
0.105279
0.110262
0.0945463
0.0954502
0.0955221
0.0744459
0.0709237
0.0709401
0.070165
0.0680522
0.0722889
0.0621947
0.0697964
0.0691237
0.0699446
0.000410825
0.000691211
0.0895659
0.0904458
0.0899748
0.0900028
0.0362191
0.066702
0.0670785
0.0659635
0.0918338
0.093136
0.0935573
0.0912829
0.0577335
0.058172
0.0567406
0.155722
0.03965
0.0554638
0.0560389
0.0550448
0.0565864
0.0784761
0.0844668
0.0615514
0.0623119
0.0672901
0.066065
0.0259811
0.128398
0.0347888
0.033337
0.105611
0.000361203
0.0479412
0.0596827
0.0672898
0.0677567
0.0667848
0.0836868
0.084671
0.00803298
0.0454988
0.0450203
0.0468306
0.0362945
0.0382132
0.0332533
0.0413122
0.0445823
0.0436306
0.00461057
0.00445897
0.0484527
0.049183
0.0635089
0.0632321
0.0643332
0.000336003
0.0571904
0.00062879
0.0651822
0.0571467
0.0553382
0.0568721
0.0550487
0.00161977
0.0476703
0.0488111
0.0482658
0.0736972
0.0587196
0.0654913
0.0647404
0.0532145
0.0528476
0.0516961
0.054321
0.0428964
0.0398389
0.0418615
0.0405368
0.0506395
0.0481217
0.0506456
0.0536627
0.00107356
0.00429418
0.090175
0.0905445
0.0897833
0.0908559
0.055194
0.0557706
0.056145
0.0357729
0.0538461
0.0538658
0.0561942
0.0615377
0.0608133
0.0612366
0.0950389
0.0969947
0.0956786
0.0970182
0.0983043
0.0477375
0.0460465
0.0461593
0.0475355
0.10329
0.105073
0.104398
0.103824
0.0352821
0.0335729
0.037409
0.0534588
0.0523638
0.0663491
0.0664475
0.0656231
0.0537614
0.0511904
0.0704944
0.0720342
0.120649
0.119059
0.119355
0.120426
0.0818569
0.0784
0.079496
0.0525369
0.0539397
0.0357322
0.0326585
0.0321755
0.0179507
0.0585306
0.0574046
0.0605726
0.049734
0.0503662
0.0388747
0.0863886
0.0883319
0.0881314
0.0864129
0.00109328
0.0540652
0.0552871
0.0543919
0.054925
0.137037
0.137196
0.0552803
0.0535917
0.0542657
0.0545961
0.0525293
0.052752
0.0512747
0.0278681
0.0308235
0.0271444
0.0474091
0.04875
0.047433
0.0487993
0.0587139
0.068781
0.0590658
0.0442695
0.0435809
0.0445241
0.0432264
0.00765418
0.0693541
0.00744789
0.00733867
0.0928096
0.0920895
0.0921543
0.0927007
0.0637484
0.0495502
0.0490243
0.0666617
0.0662689
0.0667391
0.1014
0.0858459
0.0583142
0.0591753
0.0573687
0.0468304
0.0421039
0.0439342
0.0447413
0.0370254
0.0768623
0.0762587
0.0108903
0.0134438
0.0524605
0.0514254
0.0516397
0.00118598
0.0523267
0.0680646
0.0744028
0.0738746
0.0758139
0.0626985
0.03898
0.0374018
0.0396516
0.111026
0.108404
0.109798
0.0457876
0.0455917
0.128516
0.129566
0.0421795
0.0435908
0.044843
0.0991319
0.0954129
0.0893745
0.0126139
0.0154472
0.0141027
0.0113468
0.0111552
0.011893
0.00984336
0.0152635
0.0515196
0.0589546
0.0600072
0.0558479
0.0554803
0.0568298
0.0646794
0.063951
0.0619993
0.0618111
0.0924299
0.0929343
0.0424286
0.0441339
0.104421
0.118929
0.0967097
0.0975404
0.0837101
0.0860652
0.0822594
0.0858956
0.0877866
0.0868219
0.0231597
0.027739
0.0603225
0.0589914
0.0595016
0.059837
0.0740103
0.04331
0.0440382
0.0447111
0.0448723
0.044238
0.0461598
0.0428345
0.000846964
0.0467692
0.0472022
0.0481266
0.073986
0.0697813
0.0388832
0.0379596
0.0658008
0.0650573
0.066099
0.0761818
0.0823917
0.0616781
0.0611824
0.0616998
0.0613189
0.033506
0.0925629
0.0915385
0.0415026
0.0409067
0.041957
0.0403902
0.0619536
0.0625857
0.0613379
0.00615657
0.00671595
0.00532889
0.0829868
0.0845608
0.0805131
0.0407517
0.0395972
0.0465043
0.0446914
0.0514962
0.0521568
0.0523163
0.0631492
0.0523261
0.0541311
0.0544249
0.0798664
0.0423761
0.0407416
0.0413524
0.0418006
0.11125
0.109371
0.10951
0.111018
0.0723354
0.0508343
0.0526445
0.0507177
0.0532364
0.0653433
0.0926909
0.0923296
0.0933788
0.0917389
0.0910535
0.0920233
0.0924839
0.0907296
0.0346957
0.0493056
0.048855
0.0622438
0.0623919
0.000601371
0.00637484
0.0709193
0.0704089
0.0586891
0.0594696
0.0595682
0.0589213
0.0603072
0.0600311
0.0588416
0.00682511
0.0082194
0.0558255
0.0543548
0.0553702
0.0549093
0.0743171
0.088841
0.0878886
0.0884661
0.00826426
0.0541263
0.0532311
0.0544493
0.0528261
0.0409918
0.0421938
0.0410959
0.041974
0.0847185
0.0843726
0.0837195
0.0769442
0.0236808
0.0227981
0.0222829
0.0240442
0.0284414
0.0295998
0.0615846
0.0669499
0.0669313
0.0670707
0.0447342
0.0465737
0.0458877
0.0453998
0.0762409
0.076622
0.0553443
0.0563339
0.0562765
0.055328
0.0394781
0.0448439
0.0447542
0.0414005
0.0246676
0.0220165
0.0421898
0.0434236
0.0725393
0.071995
0.0726635
0.0987787
0.098136
0.0977742
0.0330409
0.031733
0.0324929
0.057183
0.05765
0.0581272
0.0566882
0.0348641
0.0433691
0.0428561
0.0441051
0.0420568
0.00431968
0.0372784
0.0398612
0.0442995
0.0574414
0.0583292
0.0583535
0.0573388
0.128159
0.0898816
0.0891514
0.0891806
0.0897879
0.0589048
0.0598732
0.0587748
0.0359407
0.0917864
0.0911566
0.0918021
0.0564525
0.0580129
0.0328609
0.0370161
0.0350831
0.0577878
0.0564964
0.0581098
0.0695141
0.0368616
0.0751437
0.0507616
0.0466595
0.0887223
0.0880396
0.0913754
0.00999974
0.0083644
0.0111716
0.0609842
0.0567847
0.0581869
0.0556075
0.0311025
0.0302989
0.0877456
0.0853649
0.0860245
0.0872031
0.0914799
0.0909487
0.0438697
0.045825
0.0909796
0.0892673
0.0910322
0.088981
0.123956
0.124372
0.0402615
0.0897237
0.0895412
0.0894414
0.07352
0.0744848
0.0732549
0.0165741
0.0376722
0.0368632
0.0396236
0.0352354
0.0434725
0.045588
0.0446177
0.0444587
0.0474147
0.0456469
0.046562
0.109235
0.093283
0.108616
0.0977363
0.0243607
0.0804536
0.07952
0.114104
0.115715
0.046447
0.0455406
0.0452771
0.0465908
0.0910468
0.0903393
0.120498
0.118688
0.0384223
0.059605
0.060454
0.0607718
0.0262881
0.0232424
0.0255325
0.023201
0.0287986
0.0316077
0.0557511
0.0566813
0.0557072
0.0335528
0.0282095
0.0313291
0.0308051
0.0577684
0.0567514
0.108871
0.0991017
0.0461514
0.0492522
0.0484525
0.0463685
0.0618208
0.0186395
0.0200472
0.0216146
0.0176748
0.1078
0.106044
0.108726
0.0337208
0.0352942
0.0353818
0.0359089
0.0348464
0.0363854
0.0745682
0.0776022
0.0251599
0.0263389
0.0956416
0.0651388
0.09026
0.089067
0.0828706
0.00380833
0.0689741
0.0681984
0.0686745
0.0460757
0.0159623
0.0366144
0.0823725
0.073422
0.0701143
0.0895882
0.0791057
0.079953
0.0790491
0.0533112
0.0548227
0.000268899
0.0547981
0.0398412
0.114984
0.11305
0.113656
0.114417
0.0598532
0.0609643
0.0607014
0.060088
0.102831
0.103812
0.102132
0.104385
0.0378352
0.0384582
0.038962
0.037257
0.0644571
0.0639673
0.064616
0.063744
0.0441024
0.0448272
0.042611
0.0302664
0.0353446
0.0445921
0.0588437
0.0570087
0.123578
0.122397
0.0555221
0.0267793
0.094431
0.094971
0.0953747
0.0317938
0.0674997
0.0662884
0.0649259
0.0686552
0.0669977
0.0631663
0.0621639
0.0624713
0.0628627
0.0481741
0.0447831
0.0470194
0.0456867
0.0884382
0.0880379
0.0887005
0.0877411
0.0762645
0.0746781
0.0751175
0.0758098
0.0673194
0.0673057
0.0676868
0.0669029
0.032837
0.0307207
0.0322971
0.0311354
0.0425376
0.0413172
0.0549446
0.052795
0.0522158
0.0547319
0.114497
0.117262
0.115714
0.0728229
0.0563118
0.0543196
0.0550753
0.0523058
0.0485671
0.0516087
0.0479098
0.0489102
0.0459385
0.0472447
0.0251081
0.0643071
0.0637802
0.000254555
0.0477143
0.0492318
0.0480252
0.0488596
0.0666163
0.0535976
0.0624184
0.0417705
0.00415919
0.00434863
0.00417343
0.0529873
0.0538967
0.127935
0.0486223
0.0478527
0.0554954
0.0544633
0.0554226
0.054789
0.0550654
0.0548608
0.0555941
0.0602294
0.0614233
0.0606702
0.0607958
0.0626756
0.0421411
0.0440326
0.0429022
0.00022197
0.0540492
0.0544756
0.109979
0.108474
0.0681156
0.0694191
0.0666225
0.0707366
0.0308453
0.0339377
0.0346884
0.0370319
0.118761
0.11761
0.0472514
0.0470077
0.0479186
0.0463691
0.0512141
0.0504644
0.0482503
0.11065
0.108092
0.109233
0.10944
0.0856704
0.0848319
0.0859933
0.0843631
0.0829341
0.0843033
0.0841777
0.0829593
0.0758321
0.0762232
0.0749333
0.0331159
0.0338054
0.0340566
0.0327472
0.0376567
0.0397512
0.111403
0.0194715
0.0226217
0.0218292
0.00110886
0.0431375
0.0421557
0.0424492
0.074809
0.0731015
0.0810803
0.081957
0.0807388
0.0822017
0.025312
0.0224879
0.086628
0.0863643
0.0858333
0.0871275
0.116627
0.1176
0.118059
0.116098
0.044499
0.0453261
0.0439108
0.046013
0.0624025
0.0625701
0.0621927
0.041931
0.042953
0.0432286
0.0415329
0.0754434
0.0759073
0.0752558
0.0539538
0.0883695
0.0876026
0.088483
0.0875581
0.0244368
0.0295169
0.0141739
0.011265
0.0598296
0.00459753
0.00327957
0.00300899
0.0291747
0.0361143
0.0116026
0.000640246
0.000871471
0.000605915
0.00028996
0.0286393
0.000378038
0.000441634
0.0103729
0.0102301
0.043018
0.011356
0.0103899
0.138814
0.0169151
0.128885
0.0144362
0.0304415
0.0304363
0.00750194
0.000532388
0.081458
0.0139572
0.006034
0.00637892
0.00986545
0.106926
0.137046
0.0160408
0.0171045
0.0298781
0.00283294
0.0893044
0.137253
0.0624606
0.122617
0.119181
0.0499689
0.00334706
0.0150862
0.000392222
0.000587414
0.000561753
0.0249545
0.0234302
0.00679675
0.0253376
0.0027985
0.00328547
0.0231551
0.000637053
0.0574583
0.0305776
0.138664
0.138543
0.000461515
0.0228322
0.0218322
0.0129487
0.0081582
0.0220573
0.0216457
0.0224673
0.0497566
0.0516299
0.00675048
0.0531452
0.137517
0.137172
0.0213103
0.000570971
0.00520418
0.00414109
0.0498639
0.0121009
0.018579
0.000491291
0.019576
0.0237844
0.130149
0.00315291
0.0154066
0.0133418
0.138389
0.11425
0.00430902
0.0803026
0.037957
0.00774674
0.135167
0.0245673
0.00232454
0.0352873
0.0341907
0.0089231
0.0203877
0.0212152
0.0230463
0.0186645
0.0264667
0.0252099
0.026103
0.0366087
0.00175766
0.0198133
0.0350083
0.136144
0.0174202
0.118963
0.0153125
0.129866
0.000636427
0.0221715
0.0210981
0.0221142
0.0645718
0.0270176
0.0278833
0.00594611
0.000366976
0.00143525
0.00272474
0.075353
0.0714041
0.0178267
0.0286025
0.00543385
0.00677439
0.00262246
0.0296066
0.031261
0.150115
0.00220142
0.137214
0.137635
0.0539261
0.0155255
0.0351872
0.0598509
0.0590264
0.0346234
0.0331898
0.0360224
0.028423
0.00826738
0.004097
0.0372967
0.0157612
0.0219618
0.0335667
0.0342091
0.0317155
0.00519429
0.00830164
0.0523277
0.0515927
0.0312937
0.0287607
0.0282961
0.0353824
0.0365367
0.0542633
0.00387641
0.00396727
0.046874
0.138566
0.00395037
0.00520399
0.00465807
0.00314383
0.00423153
0.00429351
0.00563793
0.0179843
0.003847
0.00441706
0.00587591
0.00427539
0.00578874
0.0305643
0.0298768
0.0315614
0.00451166
0.00625812
0.0356951
0.000569166
0.000897654
0.0308503
0.00298721
0.0196904
0.0176944
0.0243344
0.0232822
0.00775972
0.00863188
0.00555061
0.00722165
0.123324
0.00504326
0.0784869
0.077578
0.0773571
0.0385108
0.0257187
0.00629643
0.0204312
0.00592046
0.131229
0.0255112
0.00253885
0.0118898
0.0111454
0.0136073
0.0100551
0.00684886
0.140005
0.02275
0.0246154
0.00413429
0.00329497
0.0587623
0.0686249
0.153864
0.148374
0.007438
0.0183216
0.13878
0.022351
0.0224181
0.000581939
0.00784998
0.0143096
0.117645
0.120174
0.00894931
0.0508173
0.00956157
0.00830075
0.00944161
0.00437758
0.0533318
0.0545473
0.0560003
0.00121995
0.0352337
0.131656
0.129519
0.114977
0.0581249
0.0191237
0.0379905
0.0324183
0.0669224
0.13919
0.139066
0.0227331
0.137497
0.0017328
0.00217566
0.00914357
0.0252661
0.0117518
0.0409955
0.0410716
0.039578
0.0396534
0.00447634
0.00279004
0.0019803
0.157786
0.0521951
0.0116967
0.12096
0.129654
0.130197
0.036024
0.072063
0.0700255
0.16642
0.14833
0.00143503
0.00828853
0.0590325
0.0579928
0.00667725
0.0061108
0.0308048
0.0300679
0.0816567
0.079749
0.0547163
0.0569323
0.0418851
0.0145766
0.0134648
0.060793
0.0366371
0.0363389
0.030888
0.0287719
0.0356248
0.0167782
0.00476685
0.0251569
0.00487278
0.138896
0.0106748
0.0119224
0.0241544
0.0393457
0.0236554
0.0239939
0.101118
0.0941689
0.109472
0.0242656
0.0574892
0.0150368
0.138153
0.0336395
0.00175738
0.0373816
0.00371468
0.00383078
0.137747
0.030534
0.0304092
0.0155353
0.137732
0.0936121
0.100137
0.0221756
0.0381812
0.0387629
0.0785247
0.0793649
0.0362704
0.0333104
0.0362012
0.0340862
0.0357399
0.0765908
0.0676139
0.136078
0.1366
0.0620518
0.0619786
0.0677465
0.00719865
0.00617133
0.0709214
0.0165805
0.136814
0.0638802
0.0659493
0.0678239
0.0465221
0.0442318
0.0460108
0.113807
0.147138
0.139361
0.0693877
0.0681283
0.0687674
0.122459
0.00595998
0.0281798
0.0224171
0.0154027
0.0150759
0.0988225
0.0248394
0.0360607
0.0402904
0.0207607
0.170515
0.0131181
0.0387799
0.0143403
0.0188167
0.0104456
0.014126
0.0145146
0.121702
0.124142
0.123082
0.0276622
0.0281258
0.011677
0.0685141
0.0153696
0.0146758
0.0329813
0.0295641
0.0291033
0.0389097
0.0719866
0.0338558
0.0362625
0.133033
0.127021
0.0018788
0.00245066
0.138689
0.0164689
0.00824694
0.0124879
0.119026
0.117524
0.138556
0.110016
0.138665
0.132953
0.13219
0.0202325
0.0237183
0.126072
0.126966
0.12486
0.125474
0.0490175
0.0459108
0.09618
0.0983777
0.125742
0.12353
0.00320297
0.118851
0.117751
0.0366073
0.138911
0.138742
0.138687
0.0920621
0.0883612
0.137672
0.139693
0.138332
0.0589257
0.0251161
0.0267197
0.0266739
0.0533659
0.0527057
0.0536096
0.152635
0.153545
0.058752
0.0272476
0.02877
0.156835
0.154217
0.0502809
0.0507634
0.0288131
0.0314865
0.000417328
0.00268023
0.0540027
0.00860117
0.0102856
0.0109382
0.0763396
0.000875539
0.00132412
0.0548908
0.0555122
0.0178574
0.00804414
0.00776991
0.00898736
0.00558475
0.0235825
0.024137
0.0263347
0.113241
0.114959
0.0187504
0.014159
0.0151812
0.00619893
0.00703999
0.129509
0.1277
0.133344
0.141787
0.150023
0.109465
0.0472637
0.0463555
0.0386759
0.0440376
0.0422322
0.0598473
0.0679862
0.0438807
0.0427638
0.0196487
0.0209103
0.13868
0.138605
0.24268
0.22711
0.0298145
0.00803939
0.0321667
0.0106326
0.0117856
0.0103593
0.0102353
0.00717067
0.119075
0.0188188
0.0233446
0.0350702
0.0319842
0.0604201
0.061698
0.0382289
0.037344
0.034627
0.0329202
0.0168332
0.0105169
0.0283532
0.00862278
0.0339
0.136645
0.0129386
0.0137642
0.143376
0.148679
0.0272329
0.0220464
0.0195206
0.00947113
0.0389117
0.0401275
0.0506092
0.040008
0.039469
0.0593865
0.0242047
0.000592015
0.0410414
0.041587
0.0166678
0.0130836
0.0155878
0.0824875
0.0832721
0.0823628
0.0492977
0.0706842
0.0692845
0.0700796
0.0685247
0.133664
0.0975904
0.0983205
0.0312951
0.0333184
0.0330288
0.0530359
0.0755237
0.0112538
0.139918
0.139676
0.139883
0.135153
0.0451931
0.0208402
0.0224165
0.0291027
0.0258346
0.0579809
0.0345718
0.036787
0.0517163
0.0560827
0.037735
0.0288643
0.0986406
0.104281
0.108727
0.0292911
0.0291104
0.0428448
0.0431492
0.0243554
0.0731963
0.0715
0.0564624
0.128271
0.0378411
0.00534391
0.00600673
0.135315
0.023879
0.0660951
0.00355185
0.0213956
0.0198606
0.0216122
0.0197444
0.0260644
0.0471238
0.0101435
0.00853086
0.00779993
0.0953414
0.0328459
0.000972674
0.00156742
0.0657253
0.138269
0.065898
0.066273
0.0399556
0.111781
0.106787
0.0196067
0.0203757
0.0449307
0.0425521
0.0442559
0.0637258
0.0209833
0.0220146
0.140027
0.140516
0.0357913
0.022031
0.0201796
0.0347561
0.138782
0.0918623
0.0899576
0.0368224
0.0722876
0.032708
0.00301281
0.00242627
0.00507964
0.0453401
0.0849929
0.00348043
0.183273
0.00243492
0.0045623
0.00693463
0.00429787
0.00361707
0.00379326
0.00268527
0.00363845
0.129
0.0364904
0.0380045
0.0210791
0.0356168
0.0649537
0.0634711
0.139367
0.139496
0.13929
0.0714593
0.0951321
0.0936778
0.0680132
0.0659633
0.0635931
0.0309345
0.030971
0.0668124
0.0649433
0.0127516
0.0141284
0.0158052
0.145599
0.150652
0.138175
0.137977
0.0483401
0.12001
0.11623
0.0310497
0.033251
0.137582
0.13726
0.00398638
0.061892
0.0611206
0.139085
0.138808
0.00911653
0.133921
0.0659568
0.0725703
0.0558477
0.0254781
0.0206838
0.00392769
0.0237916
0.0938375
0.0706248
0.0711954
0.0152597
0.0185538
0.0198215
0.0026098
0.0688954
0.0695503
0.0608235
0.124642
0.125153
0.126122
0.0385633
0.0424401
0.0442266
0.04491
0.0442048
0.0385098
0.105729
0.107395
0.0451928
0.0391719
0.0400029
0.0389169
0.0422829
0.0431194
0.00135011
0.112693
0.113775
0.115796
0.0143046
0.0130998
0.0556097
0.0554504
0.136703
0.136672
0.0251974
0.0277966
0.126562
0.127406
0.038714
0.0391407
0.038243
0.231491
0.187758
0.0800557
0.078326
0.0121071
0.0135718
0.121245
0.0509748
0.0529784
0.131399
0.130606
0.129789
0.0227739
0.0251025
0.138465
0.138178
0.0434946
0.0424525
0.0433576
0.032459
0.0297562
0.108058
0.107678
0.106588
0.0110279
0.0142808
0.0585004
0.0592318
0.0149673
0.138068
0.138247
0.0422522
0.126889
0.12301
0.016789
0.0624615
0.0657264
0.0349823
0.0353893
0.0366157
0.138259
0.118356
0.103377
0.109815
0.115184
0.0210109
0.0739927
0.138204
0.0205186
0.00188929
0.00337185
0.0514781
0.0510651
0.0149803
0.0704841
0.0371872
0.0343612
0.120525
0.130977
0.042855
0.0447869
0.0198606
0.0633783
0.067538
0.0135276
0.041747
0.0410075
0.0647523
0.00470701
0.00475201
0.121641
0.0466234
0.0470526
0.0456361
0.0354284
0.0408031
0.0367179
0.0494501
0.0506232
0.00665339
0.0514413
0.0508307
0.0416982
0.0398878
0.0398159
0.0081631
0.00720699
0.0907726
0.0897894
0.0887518
0.0375498
0.0342472
0.0528395
0.0467219
0.0485699
0.00349307
0.0342336
0.0967957
0.0968222