/*--------------------------------*- C++ -*----------------------------------*\
  =========                 |
  \\      /  F ield         | OpenFOAM: The Open Source CFD Toolbox
   \\    /   O peration     | Website:  https://openfoam.org
    \\  /    A nd           | Version:  6
     \\/     M anipulation  |
\*---------------------------------------------------------------------------*/
FoamFile
{
    version     2.0;
    format      ascii;
    class       volScalarField;
    location    "1400";
    object      p;
}
// * * * * * * * * * * * * * * * * * * * * * * * * * * * * * * * * * * * * * //

dimensions      [0 2 -2 0 0 0 0];

internalField   nonuniform List<scalar> 
29884
(
2.79253
0.0954726
0.538538
-2.64338
-0.146535
2.47876
0.112373
-4.39998
-0.834173
1.07693
2.81992
0.660944
-1.25884
-2.37054
0.0334395
-1.92468
-0.324019
-2.19796
-4.43235
-2.95759
-3.46189
0.558144
0.292841
3.39809
-1.56019
1.15231
-0.751725
-1.33881
0.343954
0.401146
3.11821
2.69009
-0.76815
5.30165
1.84031
1.70588
0.842651
2.99129
1.77985
1.01376
0.739269
-1.69891
3.05866
5.0637
-3.61257
0.513886
-2.24931
2.12811
0.611721
2.45323
3.10873
-0.292993
1.21595
-0.849499
-2.91441
4.3324
-2.68942
-1.66674
-3.70823
-0.63058
-0.313098
-0.796783
-0.296073
1.03064
2.08835
-1.9416
1.32966
1.56943
0.726579
1.44912
-0.415983
-1.15012
7.88518
0.705874
0.519741
1.48468
-2.78069
-1.32493
-2.6029
0.827033
2.12584
-3.25865
-0.341532
2.06834
-0.239794
15.1838
0.684956
-0.621264
0.165129
19.0013
0.54355
-2.31173
15.0107
20.3758
2.70389
24.2641
1.18843
1.30213
0.0555785
20.294
1.56252
1.72083
0.157835
0.550894
0.360899
-1.85936
18.3387
18.8514
3.1003
1.63761
1.27575
24.2799
-0.072382
-0.205969
-0.200556
1.91208
2.4077
0.00443284
3.8396
3.36415
0.829744
2.5232
2.08357
2.70324
-0.357622
3.50938
1.18438
1.46404
-0.727176
2.98244
3.20112
2.86412
-4.31208
-2.29619
-0.203502
-0.654321
2.212
0.359741
0.341651
0.621824
0.350995
3.09397
1.92898
-1.93259
-2.09711
-1.87036
-1.54214
2.4623
1.95745
2.13941
2.66749
16.5453
17.9455
0.722505
0.62077
1.00795
0.567599
1.16808
0.84432
0.621105
0.944932
3.43505
3.62137
2.7371
25.6034
25.5195
-2.46889
-1.05734
1.03643
-5.88676
-2.82487
1.20749
1.22723
-0.377115
-0.223958
2.73669
3.04628
-2.88393
1.92704
1.76105
1.90859
5.33107
5.38698
4.73577
-0.154099
-0.103194
1.23066
1.09205
1.31847
3.20548
0.566497
4.27329
4.8518
-0.320959
-0.405588
2.56134
2.60824
0.69393
-0.077976
0.108404
0.300149
2.5544
2.45444
1.64937
2.51491
3.93538
0.112056
-0.278754
-0.394126
-0.769258
0.570082
-0.591341
-1.7865
-3.5571
-1.61227
17.4172
2.60698
19.2434
-0.140818
21.6877
21.982
-11.0591
2.31461
0.162586
16.6228
22.0822
18.7706
21.5371
11.8938
-7.28298
4.64884
19.1746
17.733
-7.38186
-7.66938
17.8825
18.0315
2.74892
-3.4975
-3.54925
-4.14469
23.9874
17.9538
-6.64444
-4.29446
2.96202
18.1141
19.3351
-8.4369
-9.48272
-5.66688
0.697422
2.64379
2.49262
22.5712
22.2554
21.2013
21.5877
-10.2816
-9.44303
-0.70087
3.02224
-6.72562
22.5495
2.30922
19.4948
-9.28419
2.26396
1.86119
19.5967
1.21935
1.35944
21.0328
19.1075
19.2122
17.6145
18.3566
21.2502
20.9625
-5.19554
-0.829
17.9296
1.65783
1.50942
3.76667
2.89517
2.54737
-9.47719
25.7391
1.82688
22.1835
17.8969
17.8766
-5.95443
-9.78194
-9.80528
3.13472
17.8755
17.953
-6.18958
-5.27524
18.5476
18.403
18.5618
21.2236
17.4323
16.4107
6.54642
2.66813
2.9089
2.90221
3.18856
20.8007
-5.58328
-5.99582
-9.70141
-6.40731
18.3912
-10.3995
-9.53034
-9.99896
20.2403
20.799
21.0155
-10.4805
1.40401
20.0452
20.6286
20.69
21.0702
2.18711
1.77042
1.74735
1.788
17.9977
17.936
2.20804
-3.66746
22.0904
22.0287
-7.26322
-3.20335
21.8925
8.04403
0.387892
22.3025
21.8728
22.0365
22.0679
19.5673
19.2495
20.1824
1.26199
1.3593
0.956652
20.6478
21.2268
21.3577
21.3516
21.2729
20.0774
19.1052
6.14592
0.438208
2.40859
2.26445
2.76495
2.64828
25.0061
22.8846
-6.52019
-5.75624
0.554099
0.680549
0.524383
3.00942
2.39314
-7.81637
-9.9979
-10.432
-10.4733
11.7171
4.06392
4.03138
3.59312
-5.8629
-6.53803
-6.34109
-5.58295
16.4131
17.5824
18.6204
17.0844
-6.9347
-7.43865
-6.90578
18.0121
18.332
-4.2225
-4.25546
17.7587
18.9097
16.2707
17.578
16.6804
16.3888
19.0737
3.00268
3.2192
2.00274
2.28179
17.7467
17.5392
22.1351
22.3074
22.5142
19.6491
-0.144213
17.6272
17.1776
18.1164
-3.6625
20.698
20.5512
21.4344
19.7018
19.1401
18.8865
18.4409
20.7454
20.3324
20.4758
19.9062
-3.96457
18.2669
19.2247
19.1852
19.4676
-4.42938
-4.85491
19.0938
18.7774
18.2972
18.541
3.85569
3.47929
4.03206
-7.09029
-6.01887
-7.53867
-6.92248
-0.331315
-1.54151
14.3742
14.2075
1.15271
1.20113
1.18603
0.974622
-1.24588
25.2295
6.65113
5.93189
0.440388
-6.97886
-6.56728
-7.09444
-6.5494
16.2951
15.3589
15.6854
14.5604
1.54945
1.4154
1.55795
0.906915
0.950171
1.13994
0.719772
0.93373
0.85985
3.61896
3.40835
3.48668
3.89326
-6.17692
-5.61389
-6.21278
-6.37743
2.97786
2.65516
2.83774
22.082
22.2979
22.1392
21.5926
4.15628
4.93425
4.3869
24.0902
25.2657
1.3595
24.909
10.8271
0.823533
0.795425
24.1816
24.0314
0.835141
0.862806
0.867133
1.31918
-8.05008
0.890435
-0.486816
24.3726
24.4076
2.32201
19.3256
-0.0186001
0.972349
-4.16046
-5.83017
-1.83897
-2.05189
23.1152
-3.57184
-4.04609
-0.290917
1.96475
-5.40217
-0.0273227
0.162819
0.176743
0.309421
-1.82506
3.13078
3.19195
-2.74394
-2.64079
-2.81697
-0.132062
-0.392548
1.19695
1.24123
1.05272
0.998722
4.66635
22.7867
2.27538
2.25185
0.015461
1.11705
-0.432403
0.923542
0.996956
1.03211
25.1739
1.39253
1.33268
-8.23522
-9.04749
-8.06208
-2.35209
-6.4368
-4.91136
-0.405878
-0.356576
-0.379622
14.6331
13.8214
-3.0012
-2.6359
-2.37353
-1.69988
7.26401
-4.65426
-1.02465
-0.855798
-2.40575
-2.70299
25.0376
0.272974
-1.14288
14.4578
-0.181087
0.141814
25.6909
18.7471
19.3803
2.1678
1.07562
1.14584
-7.02604
2.37312
6.34899
7.11553
22.3232
22.1383
3.9628
4.47468
4.27789
1.0078
0.953923
23.1337
1.2538
3.51537
3.73241
1.85357
1.65965
1.51728
2.38733
5.66385
5.04355
6.21995
5.5737
2.79487
0.450088
1.62147
-0.808081
1.54238
0.249751
0.809103
0.933721
-5.28971
-6.42222
-1.54378
-0.154065
-0.533862
-1.03302
9.33507
10.5736
19.4741
19.8886
20.2879
21.4911
0.807706
3.02597
2.81894
0.656585
1.29841
17.4193
16.7243
-3.69389
-3.95613
-3.23104
1.99893
0.904978
3.13948
3.4938
6.89886
3.73982
4.37817
-9.86639
-10.2214
1.1013
1.27024
1.07667
1.30457
-2.58759
12.7863
12.0433
11.2247
1.60009
1.70019
1.81202
1.77594
1.91532
0.954102
2.89132
3.0676
-3.41714
-3.27198
-2.90217
-2.05731
-2.29781
-2.5757
-1.33173
0.573795
-1.93571
12.9517
12.0345
10.8866
23.0164
22.9091
4.94149
5.3922
19.8138
20.051
-0.660212
-1.15246
-0.394284
19.1577
19.4638
8.04498
7.41233
22.8574
16.2927
-8.30443
7.14758
3.40925
5.38499
23.2716
4.38406
-24.7501
-8.63599
-19.1545
-1.67034
22.7832
-6.05954
-12.327
19.7621
-23.2625
-5.70397
-5.8538
4.43109
4.5669
3.68712
-0.799808
-1.36756
6.93403
-4.57186
-4.97241
-8.90507
5.28521
4.72781
-4.87816
-4.12773
-3.75158
-1.3386
0.135693
-0.116995
18.7992
3.7063
4.42453
-3.38565
24.4091
17.05
16.73
23.4423
-16.3976
4.13271
-15.4288
-11.7529
23.7455
0.590429
-0.626448
2.90327
20.9495
-12.0535
-11.7713
4.56595
-3.50074
-2.51814
-3.48525
-2.11576
-4.39089
2.8209
13.3477
-12.4906
3.88242
18.4171
18.5773
1.85027
1.75199
-10.441
-2.26991
20.1633
-7.75712
-9.14126
-1.3331
-0.28062
3.66873
-35.1028
-3.40863
-1.13625
2.5833
17.1077
17.1758
5.96797
-6.54569
-6.77579
-7.53256
-35.2993
0.274429
-10.8472
-10.5558
22.5638
0.964711
0.459326
22.8537
22.6711
-13.0998
-13.1536
0.422729
-12.0591
19.0698
-0.569712
-1.13605
2.15808
-7.53052
14.5251
-0.311307
-0.562148
-9.88403
-4.06063
-2.88675
-8.136
25.2974
15.7882
-11.9231
5.99835
5.62926
16.515
16.6876
-4.56854
-4.24181
-14.0933
-25.6575
-6.12154
-10.3273
-10.3758
19.4048
-3.43386
-13.3243
23.1715
-18.694
1.89097
-5.72768
-5.92126
3.0934
3.02005
-0.164542
15.9784
4.01804
-25.7034
-12.6441
-12.8183
2.75737
-10.4915
-2.06868
-0.727517
-14.0865
-14.3198
6.32774
16.9688
21.7684
-3.39864
2.14537
2.10264
16.1891
16.1125
-2.26549
7.54163
-1.66675
-1.55415
-6.36468
3.41108
0.554749
0.126313
8.00579
9.14716
18.8637
22.5427
22.7599
22.7265
-3.42458
-2.00638
-10.0493
17.739
17.9296
13.2078
0.820653
15.4143
23.1134
14.8556
14.3786
-7.65423
2.12554
-1.15848
15.8892
15.849
-4.73722
1.08145
-12.0139
4.38048
-12.4579
5.01092
4.8523
19.752
1.25995
-16.8722
0.81042
-11.629
-0.920399
-0.0246344
15.9043
15.5465
15.3807
4.66301
4.2523
2.07973
-9.23205
-9.31777
16.5069
1.89682
1.51884
1.36094
-0.054495
-0.403481
3.15646
-9.50045
-10.3566
-25.061
-3.7151
-3.15496
-2.99054
7.82355
7.61183
5.58921
5.91793
-3.95886
-4.37418
-14.1685
3.67016
-2.37519
-2.66596
-11.8428
6.82895
-22.8318
15.6693
-11.8058
-11.55
-20.6952
4.12824
-12.3692
1.57757
1.88132
-12.6194
-10.8772
0.218481
16.3757
-17.3914
4.47931
4.87589
-12.2226
14.8963
-10.8917
24.6304
2.71503
3.1734
3.9683
2.21009
2.7791
0.411497
0.62181
1.60854
3.36226
-17.7773
-16.5576
6.00186
2.31849
1.53935
-0.232886
-1.56482
-1.89496
1.75946
-8.4725
-9.57242
4.81398
4.51671
-4.49976
-13.223
-13.5009
2.61269
2.8965
24.3732
-6.96612
-6.53142
-2.06233
21.9681
-2.34659
-2.03856
-5.92223
-5.68376
1.37547
1.63622
2.4744
17.3944
17.8831
-11.4529
-5.16508
1.66921
-11.4901
-11.3125
-11.6023
18.8211
18.5579
-11.6111
2.32673
-19.1749
-19.5395
6.10392
5.61799
-12.2476
-12.0613
-12.2556
15.865
16.0874
-5.76431
-12.2342
-3.37145
4.90221
-7.93399
-8.09419
18.6221
-11.9924
-8.24765
-9.99984
4.82522
23.2757
0.23109
-0.36826
2.90301
2.33626
-15.8001
-12.1567
-11.5989
-10.1113
-9.28886
2.37257
2.34814
2.23453
-13.0904
-12.313
18.2539
-4.74129
-4.45008
1.69855
-8.53674
-8.26364
-4.2548
-3.69937
2.06594
15.9092
15.8523
-12.6396
-12.2054
3.96735
4.27992
3.82542
4.72745
5.42956
15.9844
6.42778
22.8364
-9.09427
-9.50368
-8.89866
-8.81971
-7.73351
-8.81163
-12.1883
-12.2601
-1.15206
-1.18349
-1.36656
-0.612897
-2.01535
-6.11987
-6.50478
22.9479
18.5405
-12.1022
0.500562
0.45307
0.0499166
12.5861
-0.271485
2.02127
2.2909
0.562596
0.714636
1.01237
2.10277
2.87356
16.6465
16.2886
16.4191
16.7684
-2.68049
-3.24317
18.305
2.97327
2.93652
3.16871
-0.162465
2.30955
17.9604
-5.0354
-4.48583
17.4594
17.8546
17.0791
0.677839
-2.70251
-2.48129
-0.44663
1.55439
1.93689
-0.939907
3.1402
16.3495
16.4114
16.196
-7.86072
-8.46043
-7.60923
0.835965
16.3267
4.42323
3.7531
-0.64196
22.4475
7.41061
7.25559
7.4098
-10.2716
18.9953
-12.3563
17.0152
17.2012
24.1452
25.64
2.3627
-4.60517
2.55658
-5.18171
-4.80486
-0.119119
15.4021
0.256925
4.4576
-20.2834
-0.117454
0.225942
0.432657
17.398
2.33184
2.33276
2.39938
3.9177
4.69267
23.7815
17.1255
17.3096
-0.669713
-0.425601
-0.0748193
21.3023
22.3749
3.06075
17.7754
17.9636
17.8555
17.2892
17.0458
17.2584
1.88946
18.1569
18.2583
-12.5521
24.1278
3.57641
3.90789
-0.0303153
0.019876
4.9932
0.142015
-0.188887
-0.679181
2.22852
2.14357
-9.70488
1.17368
1.45636
1.52367
-0.0919602
0.27318
7.98179
2.25411
6.48433
-2.55519
20.9384
22.6792
-1.36175
24.3518
-11.5073
3.89366
16.0692
-5.74445
17.3883
17.6711
14.6254
14.5808
1.45889
0.755614
-2.12631
-1.99881
-2.19477
-0.540282
-0.154427
-0.402457
6.51817
6.30798
21.1962
21.7975
24.6001
-1.54752
-6.58439
2.82054
3.03377
2.99282
3.43345
3.4766
16.0211
15.8623
1.41174
1.36563
-1.27946
-0.0417006
-0.227399
-0.651715
17.5016
0.386629
1.42046
1.73417
2.24868
1.71597
-13.7812
-14.196
-13.6736
24.6479
17.3531
16.7454
17.513
17.9634
5.85422
6.10612
20.8185
1.83412
2.04953
5.89345
-10.2793
-10.2737
-9.31157
16.4254
16.4144
16.2542
-10.0958
-10.285
0.347795
-12.4492
19.2237
19.1621
13.5633
13.4126
2.39021
2.57121
2.21599
2.0642
4.72982
4.54319
14.4976
-10.6593
-11.1845
-11.6635
3.0933
2.71933
25.6558
18.2112
18.1197
-4.76007
-5.02228
24.9783
21.8959
22.3412
22.8423
22.8795
-3.85603
-4.30725
-14.6822
-13.2099
-16.5646
-12.0446
22.5591
-8.23541
-8.46981
-8.5692
-10.5516
-10.3545
-10.1858
-9.31072
25.1052
25.2176
22.552
22.4036
24.8306
21.8851
18.0222
17.7288
20.6052
-7.70641
23.7143
1.83137
1.63044
1.82116
2.91239
2.89917
2.44369
1.09857
1.28159
1.58156
2.09462
5.30578
-10.2026
-10.26
-9.67512
16.198
15.738
16.1697
1.04208
1.29092
0.931914
1.97696
2.1348
2.36898
7.8507
3.05735
3.357
3.20962
-1.20152
-0.856064
-12.5338
2.9277
2.346
2.50051
25.1614
24.9715
2.2988
2.31962
2.61187
2.91213
-11.3921
1.44185
1.36677
0.677458
1.57387
1.99369
2.0729
1.88893
-2.68764
-2.48894
-2.83698
-2.27184
-9.90442
-12.2062
-12.1021
-12.0907
-12.104
18.3037
17.5304
0.383941
1.10717
4.18593
3.29688
-17.7336
7.9546
-11.819
-12.6951
-5.83116
25.4342
-11.8716
-12.2923
4.0854
4.65135
3.29155
0.640579
0.810747
22.6944
-7.66469
-7.67187
-6.79398
-8.91482
-9.30818
-9.032
-10.92
-11.0263
-11.0276
-5.47238
-5.77677
17.4174
17.0676
-0.0470187
-0.168272
0.493815
25.3736
20.4182
23.4675
13.6888
-11.8264
-11.8846
-10.9328
-11.7709
-13.927
17.1704
16.9335
16.711
-7.34135
-6.55973
-7.07127
-6.36711
-11.7677
-11.5123
-11.7653
-11.8369
22.4984
22.8373
22.4098
22.3872
-9.09273
-8.30308
-8.98003
-8.20755
13.4767
-6.01918
2.29721
2.17913
1.92299
2.24954
-2.41635
-1.99692
-2.16744
-11.6413
-10.9486
-10.4536
-11.0449
0.404429
0.565728
0.953601
2.13519
2.23636
1.97304
1.83589
1.50185
17.0611
17.4824
16.9977
16.6015
2.29667
2.16043
2.13805
2.18326
-9.941
-10.2446
-10.4296
-4.62799
-5.3925
3.34282
3.68132
3.06887
-13.1839
-13.7537
-1.44457
-1.29278
1.20966
1.69274
0.691061
1.2635
0.490413
-0.0898768
0.445485
-5.81657
-5.99323
-7.24168
-7.65327
-7.18408
-7.14082
15.488
15.7318
-1.34786
17.2843
17.2786
19.2236
0.717257
1.03546
1.3816
1.11626
17.2623
-3.56731
-2.75605
-2.6847
-2.0698
2.63063
2.29074
16.0047
16.2335
15.8599
16.072
-4.06527
-3.67389
-4.49816
-7.46259
-7.83283
-7.97176
17.3153
17.0648
17.8605
17.6862
-8.09535
4.82209
15.4258
-8.09326
-8.39608
-7.11417
-8.07679
-23.6558
5.84198
-23.2071
-22.7766
3.6401
3.93489
3.20022
3.40381
-2.41173
17.1297
17.4078
3.58792
3.37489
3.81092
0.0662231
-0.246614
-12.2316
-12.2586
-12.209
-9.41881
-9.14179
-9.35355
-8.85148
18.8829
5.62232
5.53711
-5.89826
-6.12931
16.4119
16.5908
16.4584
19.318
-5.26261
4.58181
-0.823093
-1.09907
-0.910992
0.898154
-10.0827
-10.5827
-9.60189
1.42998
1.54057
1.20792
17.844
17.9304
2.71317
2.33719
-8.24867
-7.93688
-8.67965
4.95602
4.66458
5.03768
-7.15677
-7.4067
-7.09651
-7.46202
-7.67183
17.8315
17.3038
17.6075
-4.50267
15.1628
14.914
-2.28855
-2.42614
-1.3087
2.03065
1.39146
-12.5389
-12.5088
3.81199
3.51492
18.5986
18.1508
4.38014
4.12597
2.90897
2.50111
1.48217
1.50861
0.930972
0.936102
1.39035
1.38987
17.7485
17.5268
0.0855872
-0.462291
-0.633241
-0.273341
-1.09256
17.8686
17.6953
17.5826
22.574
22.6905
22.328
22.6985
16.6836
17.5556
17.5676
17.4054
-0.122337
-0.603195
18.3591
18.4724
2.99191
3.01995
3.45284
3.58646
3.43098
-12.4383
-12.4191
-12.3293
-12.2142
19.8102
2.59518
2.41456
19.0042
18.8556
18.5589
18.9327
-0.689699
-0.639497
-1.11092
-6.16406
-6.3559
-5.88816
1.58526
2.07662
1.09342
17.3846
17.4673
17.6332
17.7639
-4.51495
-4.20338
-3.8897
14.3144
-13.3488
-13.0651
-12.5752
0.134019
-8.22706
-9.15565
-8.70496
-8.82917
-0.571012
-0.844568
-0.0143739
-0.424692
2.60859
-11.0724
-11.0277
-10.5405
-10.9398
2.5071
2.31725
2.07899
1.92292
1.72303
1.72435
2.0149
1.74108
1.41861
23.2048
17.3888
17.4849
-12.4802
-12.499
23.9997
-6.43296
0.349198
-0.140735
-1.05096
-0.740804
-1.82781
-2.34303
-1.67659
-11.914
-11.4373
-27.5329
-26.6605
15.2746
15.5933
15.8058
15.9768
4.48651
2.64212
2.38177
2.7588
-26.209
16.0155
16.1521
15.4519
15.5974
-9.46911
-9.13805
-8.84036
-8.19324
0.845913
0.897076
0.795589
4.5022
-9.5717
-9.30312
-9.63888
-9.65873
-14.3479
-13.7465
-12.4182
4.48227
4.25831
5.24146
17.8047
17.4015
17.4308
17.3924
8.81848
8.80554
-3.21594
-2.26744
-1.80584
-1.88702
18.4075
18.1688
18.0052
-9.03954
-16.1998
-17.6026
18.694
18.5408
4.64903
4.6249
4.84916
2.29711
2.2699
2.45381
-12.6
-12.7973
-12.6019
15.6066
15.3083
15.4791
15.9489
22.5275
17.2522
17.6106
17.0486
17.2778
-5.78311
-10.9348
-5.39939
-5.82
-1.75093
-1.57634
-0.665553
-0.891578
3.06322
2.32322
2.20027
2.1546
2.62677
-1.15725
-0.0675316
-0.810454
19.3132
3.26659
3.124
3.20815
-1.87348
-1.10743
-9.64757
-9.78206
-9.70861
-11.1513
-10.5669
-11.1433
5.76174
23.1171
4.34526
21.7639
21.8504
2.20498
1.69868
2.29063
-6.03137
-5.97888
-6.27108
0.390147
-11.6711
-11.9924
-11.8742
18.2949
18.5951
1.49137
1.16005
0.94217
1.23794
4.13524
4.17576
21.7678
21.8247
1.46183
1.14426
1.73442
1.57676
2.25059
2.5641
18.2543
4.2396
4.41403
4.18914
-1.33798
-0.858115
-1.28528
-21.6191
-8.24019
-8.79525
-9.01798
-8.55399
18.1828
17.7255
17.5885
17.8911
-6.02294
-7.00863
-6.46404
-11.3617
-12.6949
-15.997
-12.726
-19.0749
0.0658399
-0.0907331
-1.268
-1.00787
-6.97096
-7.52999
-6.97612
-6.1848
3.6041
3.40289
2.77368
3.11038
19.193
15.1031
14.8109
15.1132
-7.15401
-6.7287
-6.94554
-7.17874
-14.3402
-12.8974
-10.2848
-10.1407
-9.39356
-5.63933
-5.28969
-5.52809
-4.62705
15.2693
15.4848
0.588802
0.543504
-9.94155
-10.37
-10.3283
-10.3666
0.837379
-6.55958
-6.18003
-6.5427
-6.27072
2.00995
2.19383
2.15222
22.8456
17.7573
-11.9019
-11.3509
-11.4425
-10.7518
1.39208
1.63269
-11.1096
-11.1159
3.5161
19.0674
1.87723
1.60812
0.56918
-5.79392
5.27798
5.00232
5.12305
-7.262
-6.68239
18.5804
-10.1124
-11.2878
-10.4629
-13.34
-0.0932245
0.302678
0.00395155
21.5616
21.5122
25.7439
-4.90981
18.4998
2.3008
2.40426
1.87621
2.20582
-0.629495
-0.131577
0.611878
0.241923
2.2652
2.29619
2.38672
2.36983
-10.8617
-10.2392
-9.68886
-10.5268
1.99533
1.90879
3.02713
2.0662
-7.72045
-7.21441
-8.28919
-13.745
23.2813
-7.91359
-11.7524
-11.268
1.0537
1.03319
20.4673
-15.2253
2.29751
2.72291
2.43743
19.0824
-0.204145
-0.590081
-0.0654568
0.561036
3.62727
0.954613
0.487568
1.40901
1.69253
21.7276
21.8636
21.1624
21.4628
1.8653
1.97113
2.11259
1.5983
-0.459766
-0.786186
-1.10709
-0.683293
3.97821
4.18751
4.30583
3.94389
18.1987
18.1525
17.5014
17.8327
17.7412
17.8996
-9.00609
-8.17295
-9.19992
-9.5407
-0.0350403
-0.156386
-0.463364
6.20369
-12.381
-12.4583
-12.2398
-11.5817
-11.544
-10.3696
-11.8567
-12.6487
-12.9817
-13.3224
-15.7859
2.0528
1.55446
25.7561
17.8565
17.5527
17.4312
17.2068
-14.5056
-13.52
-13.1116
0.504086
-5.57722
-5.94345
-5.39175
-11.8246
-11.9623
1.99078
-11.4688
-11.3718
-3.39295
-3.96635
-4.31727
-9.6184
-8.6251
-8.38875
-9.27942
-12.4501
-12.4721
-12.3365
7.73434
6.79574
-8.96561
-8.08914
-8.61829
25.7682
-8.42051
-8.10799
0.978181
1.07077
0.0613987
1.16275
0.999935
1.23668
-13.4447
-12.1878
21.0599
21.2781
0.519824
1.00399
17.5186
17.6529
17.6196
17.8845
-5.18165
-11.3005
-11.2851
4.78339
4.91414
4.23708
4.81423
0.598342
0.583589
0.983202
0.72623
0.365306
0.452502
0.878469
0.665849
-0.719077
-0.631765
-0.762837
-12.8685
-12.5894
-11.8122
-12.3942
-10.8151
-10.9979
12.7863
-8.52233
-8.5241
-8.58382
4.6393
18.3718
18.5851
18.5274
-1.08436
-1.20664
0.0307176
0.191815
0.16498
0.598385
-10.5193
-9.91041
1.58175
1.8077
1.2238
1.57331
1.35802
1.80193
1.8572
2.13648
17.6972
17.673
18.1334
17.9973
-12.4076
-12.3909
-12.3791
18.8628
18.6248
18.2392
18.5402
4.65063
4.75347
4.41711
18.6567
1.94683
1.51207
1.54092
1.47296
-18.3402
-16.3745
-20.1778
24.7659
-3.87809
24.9676
25.1587
25.2249
23.1655
-14.8939
22.6665
23.3847
23.4424
22.94
25.7957
20.6052
25.5515
25.5821
24.7659
24.8082
-12.1734
21.7891
21.7427
0.445107
24.065
-6.19926
21.3955
23.3448
23.3531
-7.03639
23.6143
0.747506
24.5677
23.2396
23.1764
21.477
-1.20939
-0.0963241
20.8864
20.7505
-16.6821
24.9467
1.21113
2.017
-1.35406
5.78311
6.73196
-7.47597
25.4649
22.2975
25.7011
25.6496
25.6013
-15.1054
-15.6329
25.2331
-15.6403
23.6451
23.5309
22.7332
23.9381
-4.42683
-16.562
0.405505
0.528233
25.8148
-19.4901
-20.0057
21.4891
-26.7876
20.5129
20.5072
20.4924
2.47042
2.35711
25.219
-0.808047
1.27844
1.48209
-19.5632
22.6247
22.6188
25.4051
4.18083
23.9529
21.8562
25.4861
21.3481
22.9427
2.55676
23.5102
19.1742
19.2102
0.559161
6.64507
22.3807
17.5683
23.0776
25.0121
2.11243
19.9385
25.2371
23.1438
23.1911
25.0917
24.3193
24.256
23.637
24.0275
23.9387
21.0027
20.8757
23.182
20.2381
23.8652
19.5787
0.739848
24.3031
11.2052
20.4635
-1.20845
23.7228
23.5151
23.6752
23.7362
6.0029
20.7847
20.6709
-27.595
25.5922
25.6067
23.5522
-0.482044
-0.505353
-22.0977
23.7759
-28.4642
-27.5267
23.9186
17.3342
17.5452
-1.34138
18.4145
0.103355
0.045735
18.1333
22.1653
23.1615
-0.785995
-1.23042
23.2679
22.2776
3.61932
20.586
24.8967
21.9162
19.1688
22.1782
20.954
-10.6305
-10.8738
-10.504
25.2813
22.9375
-12.6532
-12.7461
3.85667
3.70683
-14.2472
-11.7473
-11.2791
0.524949
24.7061
24.3635
-6.13853
1.30214
22.6831
22.5583
22.8483
25.0692
24.994
22.4834
22.3172
23.9226
25.1013
22.2847
22.1045
24.3751
24.3002
23.6345
23.6277
4.57144
21.9734
21.7294
23.3208
24.4776
24.032
21.7519
25.4849
19.0079
19.1885
23.3094
23.2356
23.0661
24.3754
21.1632
21.0255
1.56339
21.6126
-0.174448
-0.297309
-0.29005
-13.608
-2.75114
24.0959
-17.6671
23.1696
2.12517
19.3421
25.3513
22.7061
22.5466
22.6151
24.6896
23.8398
0.969251
10.3057
9.51147
21.7628
21.9212
-1.21402
0.854928
-3.41041
-3.18279
23.5515
21.8657
0.254114
18.8741
19.2456
24.3194
23.2057
-22.8036
7.82882
7.20113
22.3424
-4.98379
22.6005
22.3755
22.415
25.3964
-6.49334
-7.46663
-7.28065
14.5106
23.2859
-0.68926
-0.979675
3.75578
0.159115
-21.1896
19.2353
19.6817
0.814061
0.68829
0.526239
20.2102
1.6841
25.5654
25.5104
24.8304
22.9162
-24.0271
22.7801
22.8147
22.8819
22.9544
22.1855
23.7597
23.836
-2.07944
-6.63131
21.5978
8.59271
3.15948
3.17785
19.3872
-0.617728
-0.763303
-3.2671
-3.68195
25.2273
-26.4548
-1.144
-1.60347
22.7457
22.8765
20.3634
20.2877
0.173786
-0.0287371
-0.523603
-0.82356
22.6452
-8.32619
-8.03966
1.04548
23.0642
23.0185
7.47292
23.6643
23.2236
22.0218
24.3376
19.8766
23.0033
-2.02695
22.0792
21.861
-18.73
4.49904
19.9056
-18.8453
7.74494
8.37797
7.63714
-18.7141
1.73442
4.55829
-4.88363
19.7975
25.1753
23.0999
23.0126
22.8781
-2.17621
23.1037
23.1369
20.2092
-5.12433
-7.05221
-5.72161
20.2316
19.2213
19.1017
-0.368878
-0.105968
-14.188
21.5945
21.5176
21.9002
21.3168
-0.903758
-1.29877
3.40449
3.08817
-1.52239
-1.29917
0.680719
25.0244
25.0841
2.01232
24.2761
-6.59801
-1.44079
-1.30245
-1.02006
-11.5842
-11.2112
-11.4066
0.0941812
-4.13971
-4.70866
1.72953
0.905291
1.03511
0.185896
2.2087
-4.22514
-4.14509
24.3118
24.282
0.364582
21.0573
-10.9441
-11.2215
-9.76829
-2.4126
22.1155
18.5771
21.9013
9.47345
24.8475
20.1376
20.1251
0.8348
0.847364
1.009
20.7189
20.6647
24.7123
0.282702
21.6478
9.5185
20.5168
20.4858
19.9988
0.437518
-1.49867
-9.28941
-9.52008
-4.56638
-5.09458
23.8176
23.7491
1.35904
21.3621
23.0241
24.5965
-0.432578
-0.872482
0.710561
-5.23138
0.618607
1.56221
1.42485
24.3443
20.3421
2.4755
2.37498
1.81225
2.19454
-4.31406
-3.29516
3.1786
3.1967
7.98101
8.76526
25.4635
0.626156
0.274531
-1.89243
0.175399
0.239311
0.241436
-0.827733
-0.418914
0.651803
0.565245
0.333112
-0.84598
20.0708
19.957
19.2633
-7.02075
-6.79122
-7.56237
-0.941454
-1.10617
-6.46154
-9.983
-10.2762
-1.90775
-1.48932
-4.03706
-4.20046
19.11
19.5775
24.6341
23.8647
3.88043
-6.50002
-6.69521
-6.6661
-0.611759
23.758
23.652
-3.05921
-2.55831
21.7573
24.2435
22.3323
22.2358
25.0079
18.3956
18.5907
18.4125
0.844441
0.73712
21.5679
24.6889
24.6445
24.9141
24.8864
7.38711
8.64095
-7.98004
-6.99625
-10.5463
1.74607
-9.00435
-8.50779
-4.8531
-4.99237
-5.29892
-5.53474
-5.57114
-7.9476
-8.38548
21.4221
21.3327
0.542233
0.628116
-0.813297
-6.12885
19.9685
24.6146
20.0101
24.6154
22.1229
22.2711
22.2002
25.0616
-5.9845
-3.04479
-3.35131
-3.57122
-3.58305
-2.96326
-2.81142
-13.2937
-13.7007
19.6109
6.78875
21.945
21.592
7.20388
20.6949
-12.4018
-0.0709519
23.9661
23.7642
-0.642056
-0.673905
19.8935
-7.22932
-7.14411
25.0345
-10.3489
-9.62192
-5.21828
18.1601
18.1578
-2.37253
22.5774
24.3037
18.22
18.2395
19.9732
19.8782
19.6349
0.553522
0.638247
0.519311
-6.80903
-1.05497
-0.858035
1.36027
0.945767
2.57961
2.16384
2.29435
19.2363
19.0361
19.0708
-3.9329
-0.951424
24.3584
0.882517
0.887833
0.924992
1.65609
-11.457
18.4909
19.1314
18.7918
19.4623
-3.95668
17.6313
17.5286
21.3115
20.9161
18.1668
4.80579
15.5082
15.0056
14.5246
23.4029
23.2969
-3.53036
-3.80017
-1.70006
-1.34345
2.58776
-5.86193
2.08113
23.1522
25.243
25.1849
1.84029
22.5568
-0.430375
-15.8924
18.5979
18.4015
18.3434
19.8992
20.0562
4.88005
-6.36179
-6.20015
-6.22831
-0.227482
23.1726
24.1194
23.702
-0.27232
0.700532
3.01446
3.24987
17.7327
-0.777628
-1.34314
24.049
24.0495
22.3929
22.4905
22.2598
-0.584
23.9144
23.8978
0.873742
0.126337
17.3639
22.3058
22.2542
19.8455
0.93647
2.28438
1.91405
19.4114
2.6482
17.9716
22.8238
18.6658
18.8716
22.2837
-0.629178
22.6172
-3.51418
25.1282
19.7921
19.846
25.3665
25.4019
25.4142
25.0685
22.5078
1.68981
22.8139
22.9522
-10.1976
19.1344
1.73105
0.883117
1.11383
1.01823
1.1604
-1.59533
1.95101
1.85367
-0.620121
-1.00608
-1.25953
19.8568
19.7912
-2.2269
-2.46461
-6.71139
-6.92528
-7.00655
-2.02105
-1.90026
1.53
1.5873
-4.46738
9.51543
10.4492
17.218
17.0401
1.90753
2.11458
-6.06433
0.675998
0.123393
0.787908
0.763538
22.0251
5.28903
17.7328
17.2739
-3.92201
19.6755
-17.9084
24.9707
0.207038
-0.52402
2.04213
2.25675
-5.41809
-5.49766
-5.2173
23.8199
15.1066
15.8423
16.4217
1.5963
1.36734
1.2119
23.0305
18.5231
18.1934
18.1043
18.0539
2.89775
2.31765
2.30475
-7.88514
18.947
18.9081
19.0133
17.7317
17.6708
25.363
1.20859
1.49348
1.23667
-8.51244
-8.37483
-9.58818
-8.82849
2.73633
2.9107
18.0649
17.8417
2.93604
3.00909
18.7606
18.5517
18.6072
-3.46222
-3.09192
0.665485
0.561934
18.8662
18.9747
0.371988
-9.76856
-10.217
1.80135
1.58964
1.95301
-8.87736
-9.20845
0.733453
0.683665
18.3291
18.5722
18.2984
-8.38986
-8.36747
0.134188
0.365231
0.0142824
-4.37244
-4.05691
-11.466
-11.7139
22.2448
1.64378
1.51249
-13.4304
4.72878
5.06455
20.4568
20.8543
20.3959
18.6428
18.7775
23.0462
1.48599
0.488673
0.228315
0.823363
0.98536
21.3351
3.18256
-0.170048
-18.3122
11.3064
11.8088
-7.92501
-7.74683
24.6707
-1.83782
5.41486
5.37156
3.87376
-10.0823
16.8672
16.4161
-10.099
20.2354
19.8891
21.9193
18.1132
18.3664
-2.00433
-6.04915
-6.13799
3.20306
17.5313
17.5814
17.6365
19.3985
19.9107
20.0629
21.6175
21.7168
-4.22503
21.9778
21.8697
17.4263
18.0343
18.0356
24.8511
24.9082
1.68599
1.63687
1.53411
0.830061
0.247492
21.0997
21.5662
21.2591
25.3554
-11.9456
2.08768
2.09438
2.54955
2.66019
20.7534
3.7937
3.19578
3.34215
-6.05668
-3.43771
-2.30937
-6.39235
-6.50014
-0.0327585
0.0709454
-4.69795
-4.0973
-11.1008
-10.7708
-11.0804
1.04835
16.8572
17.2459
-0.396273
-0.55414
-0.0790821
18.6252
18.4248
18.3166
-1.31043
-1.20772
-1.45123
-11.0883
-24.1828
4.89777
5.04878
-11.1055
-10.8106
1.03454
1.38954
18.236
-10.5465
-10.5048
2.62436
2.50462
0.0359404
0.0767554
6.14127
6.72352
7.69844
19.4685
19.4329
-14.7775
18.2298
18.3655
1.51825
0.703465
1.10444
1.2527
0.656228
-4.67944
-2.91654
-3.74165
7.32634
8.115
9.49871
8.98677
19.4864
19.7381
-1.3666
-1.48337
1.09906
1.30149
23.0273
25.3065
18.2079
18.1364
20.501
-5.28018
-5.00283
-4.9552
-0.793549
24.5431
16.8601
17.0008
3.0799
2.91105
21.0041
21.0097
-10.621
-10.6637
1.50155
0.873533
0.621029
19.7189
19.8521
4.12245
4.5247
18.9995
19.1051
22.6455
22.4868
-22.5921
0.215431
2.30499
2.21318
-3.14437
-5.18835
23.1655
-16.3998
-3.67579
-9.9474
-10.2588
-3.40012
-2.68726
-5.63167
-5.58292
-0.60173
-0.527802
-0.97588
2.60372
2.83146
0.160052
0.668343
0.449522
23.6968
22.8789
25.4321
22.0505
22.1381
21.6114
22.073
1.36099
1.87162
1.4187
-4.81413
-4.79534
2.54191
0.546771
0.40394
0.45391
-4.00068
-3.93324
13.9367
21.7333
7.99258
17.7178
17.4029
-13.1285
7.87338
-1.08901
8.77881
-25.4625
11.6265
-12.1332
-14.1104
-11.8325
4.8465
5.33189
8.10991
6.1698
-11.9298
-9.49802
-8.68684
7.68267
8.66771
8.89383
11.8559
13.6488
-5.89175
-7.89821
6.94574
4.44903
8.61326
3.11173
-11.9326
-12.0083
10.7358
11.7298
3.56533
-18.3957
-22.6324
-10.0532
12.1288
-8.23655
3.08723
10.8518
10.9355
6.11114
6.16291
-7.563
-8.04532
-9.26562
-12.4686
-12.3504
1.05829
-1.35808
12.2463
12.4743
3.14284
2.62716
13.756
-10.5625
12.8081
11.0099
0.909418
-2.82136
12.0738
6.06375
10.6464
2.29799
13.886
19.1359
5.61849
9.51029
7.28207
2.72463
9.54434
4.042
4.37713
7.19326
7.07205
-14.3778
-14.6407
1.59282
-4.67513
-20.4317
5.93549
-5.80402
-7.97008
14.0877
-0.100982
12.008
-0.597578
-1.5809
-12.7633
-15.0534
-9.26397
-10.5265
0.437188
-11.9305
-11.838
5.22879
-1.89104
-2.70399
-1.49156
-0.268111
0.925141
15.9611
-9.31885
-2.93645
-2.03592
-17.8632
22.5718
-4.58803
-30.8085
-23.3015
-26.4357
3.10275
-13.8314
-15.3357
11.5012
10.515
-8.89095
10.2224
-9.03864
-10.1024
0.503128
0.44722
0.264807
0.0485332
-11.6682
1.0047
3.78763
-4.8263
10.7321
-0.562603
-1.65526
-15.3315
15.9229
7.20834
10.413
7.11241
6.93767
-21.953
-12.354
9.97543
-18.8958
-6.29679
13.6044
13.8767
11.5526
12.5168
-15.3158
4.21718
1.98316
1.08318
10.2253
9.99301
8.7374
8.17918
8.85526
4.71926
11.4538
6.32935
-5.12142
-1.76621
-0.469515
-1.71896
-20.8678
15.5687
-4.20777
4.26748
4.52633
-11.5943
-13.3967
23.1794
-18.6114
-20.0647
16.9527
12.4032
-5.37389
2.31488
-5.58893
-6.11103
4.67093
12.0136
0.746173
-13.4283
2.10052
0.950012
2.21974
2.94956
15.8157
15.7735
-15.897
0.85929
-6.05199
-5.84973
2.14859
-7.00632
-11.6247
11.6309
-0.200465
0.655814
13.6767
13.614
7.41405
7.8749
2.37306
2.7993
-0.633167
-1.15946
-1.58742
15.7734
-4.70027
16.4784
16.2156
16.6283
-9.23081
-9.72739
-10.8906
6.39096
-7.38302
13.4253
-7.14286
-6.13607
-7.47815
4.8578
-27.0038
-7.57568
9.87969
10.8977
10.544
13.471
12.7708
12.2323
9.869
9.83702
-12.8114
6.71019
11.7937
11.189
-7.31
-28.6002
10.6002
-25.8191
-20.7069
3.2021
3.9644
5.04624
5.53268
-18.3319
2.24809
3.08721
3.83283
12.151
11.3224
1.33634
-2.26507
-2.87839
-0.769252
-0.175821
-16.9386
-15.7498
2.09894
1.13391
12.5821
11.3737
11.016
4.57464
5.28046
9.42005
8.32318
6.55695
9.09246
8.71268
7.92483
8.13346
8.37488
10.3118
2.92209
2.69578
2.636
-4.75001
14.1162
7.79451
8.28055
12.0309
-6.01869
15.8844
0.0477445
0.220279
-13.429
-2.82561
-2.12307
-2.87949
-11.8761
-11.6588
-0.159817
3.46155
2.72842
-3.06534
-1.96968
16.8522
9.04827
2.52161
3.3844
-4.38616
-14.7113
7.84636
14.3788
14.4789
9.33311
9.03278
-0.625439
-1.12464
-1.73968
-1.05367
-0.467334
4.98231
13.137
12.2919
4.49698
16.275
16.6473
16.6351
13.1395
13.3442
5.81094
12.6724
4.56398
5.05298
-3.03985
-2.02187
11.5014
10.5573
2.40665
3.15649
9.52492
10.256
-7.53681
1.30779
1.42505
1.38414
5.5365
-13.3539
-10.3287
5.32404
6.02418