/*--------------------------------*- C++ -*----------------------------------*\
  =========                 |
  \\      /  F ield         | OpenFOAM: The Open Source CFD Toolbox
   \\    /   O peration     | Website:  https://openfoam.org
    \\  /    A nd           | Version:  6
     \\/     M anipulation  |
\*---------------------------------------------------------------------------*/
FoamFile
{
    version     2.0;
    format      ascii;
    class       surfaceScalarField;
    location    "1400";
    object      phi;
}
// * * * * * * * * * * * * * * * * * * * * * * * * * * * * * * * * * * * * * //

dimensions      [0 3 -1 0 0 0 0];

internalField   nonuniform List<scalar> 
44611
(
1.5215
-2.14357
0.622069
1.5215
1.44609
-1.44609
1.93942
-0.493333
-1.3192
-0.707755
2.02695
-1.3192
-0.0921622
-2.17166
2.08717
-0.565672
1.29454
-1.29454
0.180627
1.85448
-2.17628
0.730195
2.37679
-0.34067
0.413097
-1.73229
-0.795886
-1.19913
0.795886
1.29129
-0.552444
-1.33649
0.552444
0.742092
-0.594393
-0.824372
0.824372
-1.17128
1.35191
-0.010481
1.28967
-1.27918
-0.137079
-1.86105
1.99813
1.5227
-0.214885
-1.30782
1.21976
-1.21976
-1.10017
1.10017
-1.51181
1.51181
-1.19464
1.19464
1.50296
0.0197398
-1.92085
0.409038
-0.920285
-0.786304
1.70659
-1.62804
-1.26617
1.26617
0.124859
-1.4247
1.29985
-1.49394
1.49394
-1.27995
-0.21973
1.49968
-1.37043
1.37043
1.65528
-0.143469
-0.460638
1.51083
-1.0502
1.72117
-0.501412
1.32671
-0.214226
-1.11248
-0.700506
1.09738
-0.396869
1.18668
-1.46053
0.273849
-0.881171
0.881171
-1.14578
1.03968
0.106102
0.952674
-0.952674
1.1909
-1.32798
-2.28065
0.811833
-0.811833
1.01473
-1.22961
1.82656
-2.04144
-1.60665
-0.621746
-0.818844
-0.787807
-0.899097
0.899097
-1.04032
1.02984
1.92894
0.0932697
-1.4637
0.104263
-0.299294
1.21494
1.16185
1.73229
0.165999
0.532023
-1.21614
2.03498
-1.4637
-0.982905
-0.477626
1.29947
-1.29947
0.904739
-0.420041
-0.484699
1.33067
-1.14553
-0.185142
-0.802222
-0.650292
1.45251
0.000985651
-0.0798008
0.0788151
1.67777
-0.3881
-1.69562
-0.165432
-0.356202
0.90768
-0.551478
-0.0383908
0.0451218
-0.00673105
-0.136598
-0.610918
0.747516
-1.16015
0.459647
0.0115668
0.0599786
-0.0715455
-0.0326358
0.0074005
0.0252353
0.856307
0.213164
-1.06947
-0.0020586
0.0020586
1.475
0.524528
0.240558
1.23444
0.798754
0.879012
-0.0230657
-0.00957003
1.23257
-0.504435
-0.728138
0.918016
0.314557
-1.07087
-0.624745
-0.264282
-0.80659
-0.980947
-0.476334
-0.908967
1.3853
0.00415506
-0.0425459
-0.00865135
0.034181
-0.0255297
-0.728239
0.853098
-0.649722
-0.285298
0.93502
-1.1732
0.953469
0.000420141
-0.000420148
0.0912194
0.816461
0.995958
0.651029
0.863235
0.467436
1.15935
-0.296116
-0.0776661
0.637438
-0.559772
-0.36434
-0.479391
0.843731
0.410479
-0.744707
0.334228
1.14032
0.859677
-0.747681
0.756436
-0.00875474
-0.792638
1.06649
-0.889775
0.198974
0.690801
-0.888235
-1.11657
-0.84374
-1.43691
1.10802
0.336742
-1.44476
0.927875
-0.0715686
-0.199636
0.746854
-0.547218
-0.956256
-1.08519
-1.43259
-0.849702
-1.11984
-1.61051
0.760803
-0.86802
1.27706
-0.345925
0.806752
-0.460827
-0.980785
0.174195
-0.419138
-0.536816
0.955954
-1.3096
0.890461
-0.264835
0.829818
-0.564983
-0.83254
-0.0764262
0.753392
-0.617502
0.830666
-0.893332
0.594038
0.0493171
-0.0377503
0.0363522
-0.0450036
0.595969
-0.810195
0.848794
-0.682795
-1.49299
0.681782
-0.792735
0.110954
0.811209
-0.706946
0.901155
-0.0906574
-0.810498
-1.40026
0.000945269
-0.000945272
0.00094526
1.06843
-1.06843
1.07172
-1.07172
-1.15442
1.3618
-0.207382
0.625303
-1.07739
0.452084
-0.29501
1.36673
-0.899351
0.581638
0.317713
-0.929578
0.0302271
0.831375
-0.623965
-0.207411
0.0291535
0.337202
-1.12984
-1.25346
1.25346
-0.440236
1.35825
-0.106713
-0.464281
0.00662511
0.457655
-0.153285
-0.310996
-0.642603
0.489318
0.371993
1.02302
1.40241
0.616104
-0.0202322
0.973702
-0.0781043
0.931202
-1.24908
0.359742
-0.839133
-0.282862
-0.934343
0.333953
0.60039
-1.11963
0.185283
0.0898804
-0.799894
-0.96391
-0.315274
-1.45724
-0.727049
-0.232753
1.72669
1.06709
-1.20215
1.30826
-0.0631702
-0.681537
-1.05218
1.69585
-0.643672
0.0853416
-1.41085
1.35445
1.97652
-0.860183
0.860183
-1.64269
0.782509
-0.00562575
-0.00249593
0.00812168
-0.0255504
0.0301941
-0.00464377
-0.00662258
0.00407948
0.0025431
0.0474416
-0.0572859
0.00984433
-0.00395229
-0.00423212
0.00818441
0.00416014
-0.00811242
-0.0546162
0.00901423
0.045602
-0.594143
0.294834
0.299309
-0.0636867
0.0492138
0.0144729
0.014978
-0.0644158
0.0494378
-0.00419146
0.0083516
-0.00494248
-0.000523628
0.00546611
0.0182345
-0.000707537
-0.017527
-0.0018011
-0.00898271
0.0107838
0.00610926
0.00468697
-0.0107962
-0.0020714
-0.0054387
0.0075101
0.00504195
-0.00440432
-0.000637621
0.00786277
-0.00220209
-0.00566068
0.013265
0.0123019
-0.0255668
0.0380913
-0.0248264
0.000954348
-0.00600495
0.0050506
0.00555592
-0.00460157
0.634895
-0.435921
0.0898705
-0.0454812
-0.044388
-0.0187859
-0.0207599
0.0395458
0.028362
-0.0484437
0.0200818
-0.00385637
0.00385641
-0.0065035
0.00169884
0.00480466
0.0330892
-0.0117901
-0.0212991
-0.0483481
0.0103851
0.037963
-0.0858542
0.0152504
0.0706038
0.00355251
-0.00813761
0.00458511
-0.00797541
0.00544426
0.00253115
0.107924
-0.0350828
-0.0728407
-0.00355839
0.0623243
-0.0587655
0.044322
-0.042506
-0.00181605
0.00156146
-0.0199825
0.0184211
-0.0587368
0.0156379
0.0430989
-0.0385604
0.0541159
-0.0155555
0.00327405
-0.00761234
0.0043383
-0.00591225
-0.00220017
-0.00595543
-0.00719216
0.0131476
-0.0101876
-0.0419672
0.0384091
0.0323213
-0.0742882
-0.00371123
0.00990689
-0.00619567
0.0321802
0.00848053
-0.0406607
0.0199642
-0.00585196
-0.0141123
0.00310486
-0.00310488
0.00917836
-0.0283233
0.0191449
-0.00695609
0.00430217
0.00265391
0.0609565
-0.0584838
-0.00247201
0.0306669
0.0322748
-0.0629417
0.0567259
-0.026059
-0.00453682
-0.00241926
-0.0200963
0.0211973
-0.00110103
-0.00788275
-0.0122135
0.00372287
-0.010915
-0.00621136
0.00769198
-0.00148062
0.00440872
-0.0067033
0.00229459
-0.0243359
0.0393139
0.020786
0.0108272
0.00740732
0.0182277
-0.0245948
0.0306167
-0.00602198
0.236408
-0.198362
-0.0380455
-0.00631768
0.00264811
0.00366956
-0.628869
0.343571
-0.0219073
0.0140245
0.0860839
0.464017
-0.550101
0.0552115
-0.0718642
0.0166527
-0.0035253
0.00615939
0.0129323
-0.0190917
0.00127311
-0.00127312
-0.0563484
0.473597
-0.417249
0.0134135
-0.00210556
-0.0113079
0.00819881
-0.00397984
-0.00421897
0.00509108
0.0027717
0.00914077
-0.028276
0.0191351
0.0189589
-0.021706
0.00274701
0.0107766
0.00818237
-0.0263297
0.0533318
-0.0270021
0.00457437
0.00362444
-0.00244762
-0.00387006
-0.0123433
-0.0176352
0.0299785
0.00212776
0.00878322
-0.010911
-0.00352995
0.00567777
-0.00214782
-0.00674914
0.00321919
0.00593095
-0.000253182
0.00046815
0.0152231
-0.0156913
-0.00928859
-0.0294322
0.0387208
-0.00978672
-0.0358896
0.0456763
-0.430558
0.355816
0.0747417
-0.033933
-0.00462733
0.0182951
0.030957
-0.0492521
0.0164915
-0.00334392
-0.0216688
0.0215292
0.000139546
-0.0187631
-0.00290564
0.0270011
-0.0162245
-0.0490529
0.0292268
0.019826
-0.00133479
0.00637629
-0.0050415
-0.00453167
0.0554426
-0.0509106
0.056425
0.0489728
0.00647002
-0.00153389
0.0243948
-0.0228609
0.0163336
-0.0158655
0.0147997
-0.00674577
0.0225654
-0.0158197
0.00527251
-0.0195682
0.0142957
-0.00938803
-0.00897311
0.0183611
0.00992592
0.00656559
0.000537894
-0.00240752
-0.027345
0.0188935
0.00845151
-0.0227081
0.025372
-0.00266392
-0.0500531
0.0442655
0.000183931
-0.00668743
-0.00377428
0.0056643
-0.00189002
-0.0268554
-0.567287
0.0583175
0.0363539
-0.0946711
-0.0135043
0.00694444
0.00655986
0.0106633
-0.0071329
-0.00353044
-0.0490499
-0.0240589
0.0731094
0.31942
-0.526639
0.207219
-0.00503488
-0.00515268
-0.0892887
0.223387
-0.134098
-0.918746
0.307828
-0.00558475
0.00638309
-0.000798339
-0.00782874
0.0071212
0.0341144
6.66154e-05
0.0257218
0.00839263
0.0244614
0.00737079
0.0138265
0.0126433
0.00409091
0.00973559
0.000837421
-0.0239032
-0.0166895
0.00668098
-0.0160172
0.00933621
-0.0156318
-0.00105773
-0.00895084
-0.0250208
0.000124779
0.024896
-0.0393601
0.0138304
-0.246491
-0.184066
-0.0257043
-0.0379823
0.0232044
0.0309115
0.0316559
-0.389731
0.491923
-0.102192
-0.509509
0.500754
0.00164199
-0.001642
-0.00604621
0.00257613
0.00347008
-0.0753808
0.0263312
-0.00143198
0.045754
-0.433352
-0.485394
0.164427
-0.597779
-0.552367
0.0669723
0.0027418
0.0294384
0.026261
-0.0269145
0.000653466
0.0409175
-0.0464216
0.00550397
-0.00705865
-0.0146473
-0.0138044
-0.00510577
-0.00954155
0.0578851
-0.142331
0.0844462
0.24492
0.221048
-0.465969
0.343964
-0.0990434
0.555276
-0.0176965
0.0216128
-0.00391629
-0.0157571
0.0223994
-0.00664232
-0.0334537
0.0440122
-0.0101816
-0.0490936
0.0592752
0.0365757
-0.00022351
0.0263941
-0.0345539
0.0279115
0.00353744
-0.0211414
0.0054829
0.00303851
-0.00852141
-0.00290268
0.00724514
-0.00434246
-0.0471241
-0.00122404
-0.0148981
0.0432601
0.0276897
0.0211011
-0.0487908
0.0366912
-0.0301092
-0.00658195
0.0314235
-0.0304379
0.0329924
-0.0288373
0.0080237
-0.00229466
-0.00572905
0.510837
0.124058
0.58285
-0.0720136
0.886045
-0.418609
0.0861502
-0.00765979
0.000956054
0.00670374
-0.00835365
0.0027279
-0.0097582
0.00672875
0.00302946
0.00171619
-0.0114744
0.0119259
-0.00519715
0.0048748
0.0196191
-0.0244939
0.00955135
0.00298561
-0.012537
0.00731249
-0.00810888
0.000796385
0.00562769
-0.00734223
0.00171453
0.00342766
-0.00720195
0.0127857
-0.0315716
-0.00880093
-0.00654912
0.0153501
0.00598967
-0.0147906
0.00732471
-0.0138738
-0.0210011
0.011431
-0.00472074
0.0311148
-0.0083492
0.0120721
-0.00700086
0.0118757
0.0239477
-0.489064
0.545941
-0.0568772
-0.0221656
-0.00384235
0.026008
0.00137962
0.0182395
0.0143971
0.0218184
-0.0749669
0.0531484
-0.0326912
0.0545097
0.000532584
-0.0052042
0.00467162
0.00583764
9.33151e-05
0.00637022
-0.00511088
0.758835
0.00974597
-0.768581
-0.0516635
-0.512836
0.193759
0.319077
0.0354329
0.0054846
-0.00779463
-0.0347114
0.0276382
-0.039756
0.0715537
-0.0317977
0.442602
-0.547755
0.105153
-0.0390127
-0.0300254
0.0690382
-0.0732408
0.034228
-0.35768
0.593037
-0.235357
-0.577341
0.557108
-0.0594371
0.163877
-0.10444
0.108306
0.128101
0.00324443
-0.00311695
-0.000127476
0.255013
0.114743
-0.369756
0.261638
0.018508
-0.0169466
0.00901168
0.0244834
-0.0334951
-0.0213135
-0.0121401
-0.0328348
0.0230481
-0.016603
0.0501927
-0.0335897
-0.88611
-0.188271
1.07438
0.571553
0.373701
-0.945255
0.470343
0.287412
-0.757755
0.180636
0.289707
-0.507377
0.618331
-0.466324
0.630751
-0.306195
0.392278
-0.44066
0.362555
0.754834
0.0119265
0.0211627
-0.0210673
-0.00352752
0.0306539
-0.0221734
0.00510356
0.0311584
0.001851
0.00881234
-0.00760372
-6.93605e-05
0.00767308
-0.00575271
0.00874298
0.506005
-0.0419884
-0.0901402
0.447971
-0.357831
0.415865
0.001332
-0.00213236
0.000800353
-4.2517e-05
0.00238979
-0.00234727
0.0588361
-0.767069
0.708233
0.00228067
-0.000210579
-0.00207009
0.162277
-0.104392
-0.0392045
1.17952
0.285693
-0.962665
0.676972
-0.00157175
-0.00228462
0.00224262
-0.00381437
-0.753742
0.339491
0.414251
0.573105
-0.85973
0.494122
0.365608
0.0862797
-0.0239554
-0.267847
0.498425
-0.230578
-1.21422
0.56393
-0.00175214
0.00175214
-0.696427
0.669571
-0.00861363
0.0040768
0.777372
-2.03083
0.749147
-0.758249
0.00910214
-0.55423
1.62266
-0.607272
0.694953
-0.0876812
0.38545
0.257268
-0.642718
0.828052
0.00246495
-0.00246495
-0.243594
0.77848
-0.534886
-0.732658
-0.466543
0.800497
-0.623636
0.0367053
-0.0693965
-0.872189
-0.342034
-1.28286
0.822034
0.535346
-0.613012
-1.03489
0.469903
0.0457671
0.462748
0.877865
-1.34061
-0.829241
1.29199
-1.38347
-0.774362
0.354321
-0.689435
-0.0849276
-0.868413
0.00868223
-0.809576
1.33925
-0.81472
0.184829
0.394485
0.00153276
0.0027123
-0.00424507
-0.128115
0.363808
0.214142
-0.903577
-0.3654
0.152835
0.212565
-1.0796
0.624565
0.124582
-0.633247
0.00278425
-0.00300417
0.000219931
-0.95534
0.0323661
0.0813391
0.0225738
-0.46581
0.649221
-0.183411
-0.343222
1.47669
-1.81991
-1.01394
-0.105899
0.928602
0.523911
-0.0198222
-0.0919871
0.0721649
0.82842
-0.509
0.36261
-1.69354
1.39853
0.89512
-0.40365
0.210363
0.193287
-0.989608
1.84979
-0.737564
0.536007
0.201557
-0.261763
-0.475801
-0.207098
1.24443
-1.45153
0.00230959
-0.000667603
-0.305184
0.781364
0.0452254
-1.31802
0.19839
-0.519263
-0.00136018
0.00136017
-0.0116704
-0.610277
1.54139
-0.17959
0.611812
0.0694552
0.0384692
-0.0242201
0.0564949
0.241004
0.114812
-0.162646
0.0109471
0.607454
-0.597708
-0.55579
-0.283343
0.901519
-0.418758
0.00249502
-3.00681e-05
0.646957
0.0327492
-0.480087
-0.589972
-0.0336632
-0.900531
0.310559
-0.534923
0.709179
-0.434103
0.548914
-0.717446
-0.266053
0.476416
-1.34631
-1.48978
0.649453
-1.04408
0.054834
0.00189193
-0.253419
0.831823
-0.578403
0.0406701
-0.102707
0.0608922
0.0418149
-0.058551
-0.0441551
-1.18991
1.05179
0.138117
0.227979
-1.27206
0.828369
-0.361542
0.0314771
0.230039
-0.261516
-0.0861115
0.117589
-0.00778793
0.0221851
0.0161598
0.0166977
0.0048405
-0.393538
-0.569128
-0.619232
0.0924439
-1.55614
-0.0239025
-0.0616528
0.770481
-1.53034
0.759864
-0.877521
1.648
-0.752973
0.212724
0.162621
1.22971
1.55614
0.170543
0.0544265
-0.049469
-0.00495729
-0.00405708
1.64317
-1.02706
0.915028
-0.282288
0.00409402
-0.0960812
-0.0761658
0.0802599
0.873808
0.200573
0.688666
-1.06255
0.64394
-0.373882
-0.937345
0.478328
-0.651512
0.036941
0.815422
0.533134
-0.575239
-0.895744
0.320505
-1.08519
0.537469
-0.0478052
0.11997
0.0324546
0.150043
-0.00387754
0.00362282
0.000254714
-0.00234478
-0.144455
-0.572991
-0.390946
0.0185042
1.58819
1.08678
0.00189208
-0.00468264
0.00279056
-0.00363479
0.00552686
0.00956372
-0.00558122
-0.0039825
0.00221137
0.00735235
-0.00355464
0.00655981
-0.00300517
0.00569258
0.000304542
-0.00599712
-0.00106188
0.00948912
-0.00842724
0.00679054
-0.00654782
-0.000242714
-0.00463319
-0.00234382
0.00697701
-0.000391551
-0.00559397
0.00598552
-0.00440474
0.00209521
0.00230953
0.00178573
0.00713217
-0.00891791
-0.00136941
0.0107517
-0.00938228
-0.0103192
0.00369184
0.00662737
-0.0012193
0.00978312
-0.00856382
-0.0154219
0.0152555
0.000166441
-0.00676196
0.00340218
0.00335978
0.0100968
-0.0121708
0.00207401
-0.0171569
0.0119796
0.0051773
-0.00434763
0.00397593
0.0003717
0.00786481
-0.00923422
-0.018394
0.00107899
0.017315
-0.010478
-0.00791596
-0.00701059
0.00294629
0.00406429
0.000300826
-0.00731141
0.00497619
0.00409642
-0.00907261
-0.00762172
0.000647228
0.00697449
-0.00255557
-0.00506615
0.000433228
0.00538484
-0.00581807
0.00952526
-0.0100904
0.000565176
0.00860988
0.000915387
-0.00806063
-0.00356453
0.0116252
-0.00545945
0.0050679
-0.00126306
-0.00481983
0.00608289
0.00280995
0.00427594
-0.0070859
-0.00768468
0.00710508
0.000579595
-0.00284976
-0.00483492
0.00622058
-0.00877615
-0.0102759
0.00190113
0.00837476
-0.0034743
-0.0068016
0.00126523
-0.00571823
0.00445299
0.00458935
-0.000588092
-0.00400126
0.00388736
0.000701986
-0.0176681
0.0304538
-0.00247159
0.00469396
-0.00222236
-0.00563159
-0.000614456
0.00624604
5.4095e-05
-0.00568568
0.00187693
-0.00333794
0.00146102
0.0263151
-0.0416904
0.0153751
0.0265237
-0.00825009
-0.0182736
0.0023225
-0.00878982
0.00646732
0.0110299
-0.000829399
-0.0102005
0.00392159
-0.00273302
-0.00118857
-0.00749986
-0.00271146
0.0102113
-0.0139968
0.00908486
0.0049119
0.00493722
-0.0105497
0.00561249
-0.00588288
0.00114997
0.00473291
0.0142123
-0.00388733
-0.0103249
-0.00810308
0.0223153
0.000727234
0.00758783
-0.00831506
0.00308758
0.0077543
-0.0108419
-0.00683911
-0.00219022
0.00902933
0.00574235
-0.0121494
0.0064071
0.0084614
-0.00720177
-0.00125963
0.00292303
-0.00935954
0.00643652
0.0101028
-0.0226192
0.0125164
0.00238684
-0.00663561
0.00424877
-0.00694756
-0.00090238
0.00784994
0.00994079
-0.00549505
-0.00444574
-0.00827978
-0.000413203
0.00869298
-0.00673475
-0.000888128
0.00762287
0.0067927
-0.323432
0.316639
0.191049
-0.184257
0.010299
7.82147e-05
-0.0103773
-0.00180549
-0.00807459
0.00988008
0.00083569
-0.00422044
0.00338475
-0.00922763
0.0059679
0.00325973
0.00187825
0.00883037
-0.0107086
-0.0113571
-0.00406481
-0.00464405
-0.00671304
0.0111708
0.0153529
0.00842585
-0.00842587
-0.00461235
-0.00449221
0.00910456
-0.00947177
-0.00588018
0.015352
0.00642553
-0.00240658
-0.00401895
0.00747523
-0.00690537
-0.000569865
0.00497931
-0.00552007
0.00791959
-0.00239952
-0.00901269
0.00111007
0.00790262
-0.00396257
-0.00505011
-0.00811755
0.00824784
-0.00824784
-0.00203174
-0.00424211
0.00627385
-0.00805448
0.00762436
0.000430123
-0.00129477
-0.00675971
-0.00396891
0.00674208
-0.00277317
-0.00590665
0.00366611
0.00224054
0.00177862
-0.00768527
-0.00476156
-0.00252103
0.00728259
-0.0108062
0.00480419
0.00600199
-0.00947054
0.00986894
-0.000398393
-0.00534837
-0.00412217
-0.000170618
0.0179781
-0.0178075
-0.0198751
0.0286449
-0.00876982
0.00467483
0.000367122
0.00796979
0.000706074
-0.00867587
0.00983794
0.00667444
-0.0165124
0.0289399
-0.0430948
0.0141549
-0.00899976
0.0104963
-0.00149659
-0.00553591
-0.0107965
0.0163324
0.00848314
-0.00534415
-0.003139
0.00157228
0.00691086
-0.00430112
-0.00427819
0.00857932
-0.00733158
0.0102546
-0.0123829
0.00554383
-0.00453401
0.010783
-0.00624902
-0.00122868
0.00338852
-0.00215984
0.00419423
-0.00615839
0.00196416
-0.00984978
0.00218388
0.0076659
0.0108701
-0.00354379
-0.00732632
0.00428276
0.00658735
-0.00556531
0.00132436
0.00424096
-0.00491001
0.0049641
-0.00908992
-0.000269622
-0.00600233
0.00325334
0.00488915
-0.00814249
0.00484017
0.00414805
-0.00898822
-0.00457904
0.00998702
-0.00540798
0.00821962
-0.00951439
-0.00883685
0.00776345
0.0010734
-0.00610433
0.00246955
0.00831909
-0.00297179
-0.0053473
0.0108531
-0.01164
0.000786906
-0.00468775
0.00413488
0.000552859
0.00597472
0.00352331
-0.00949803
-0.0053644
0.0148665
-0.0095021
-0.015984
0.005506
-0.0058872
-0.00832372
-0.00737434
0.0156981
0.0135544
-0.0218781
0.0392934
0.00992047
-0.00832837
0.00608922
0.00223915
0.00670443
0.00101758
-0.00772201
0.00800568
0.00505505
-0.0130607
0.030469
-0.0622338
0.0317647
0.048256
-0.0177869
-0.00628475
0.00617978
0.00010497
-0.0239968
-0.0247911
0.0487878
0.117745
-0.0134933
-0.104252
-0.00695907
0.00799936
-0.00104029
0.0291591
-0.00417351
-0.0249856
0.0399243
-0.0107652
-0.0024666
0.00692583
-0.00445923
0.00129792
0.0103537
-0.0116516
-0.0053524
0.000589328
0.00476307
-0.000697064
0.00904179
-0.00834473
-0.00869752
0.0121124
-0.00341487
0.016426
-0.0115268
-0.00489916
-0.000994315
-0.00468752
0.00568184
-0.00171287
-0.00382124
0.00553412
0.00548848
0.00490422
-0.0103927
0.00570516
0.000557358
-0.00626251
0.0120207
-0.00739844
-0.00462226
0.0102069
0.00181377
0.00472396
0.00505802
-0.00978198
0.00823831
-0.00326212
-0.00106911
-0.00634573
0.00741484
0.0022265
-0.00770566
0.00547916
0.0102807
-0.00806936
0.0100807
-0.0074103
-0.00267045
-0.00514328
0.000200804
0.00662162
-0.00360229
-0.00301933
-0.000140336
-0.0092169
0.00561461
-0.00331521
-0.00448742
0.00780263
0.0105383
-0.0123438
-0.00823526
0.00393414
0.00236648
-0.00740503
0.00503855
0.00591899
0.00707486
-0.00468803
-0.0109094
0.00316176
0.00774762
0.00638486
-0.00408984
-0.00229503
-0.00293655
-0.000845508
0.00378206
0.00051466
0.00451646
-0.00503112
0.00650822
-0.00599356
-0.000530434
-0.00812744
0.00865787
-0.080012
-0.192689
0.272701
-0.0363848
0.0308335
0.00555123
0.00573389
0.000441502
-0.00617539
-0.00259447
-0.00761602
0.00263508
0.00498094
-0.0068373
-0.00676326
0.0136006
-0.00504612
-0.00874089
0.013787
-0.00480298
0.00940188
-0.0045989
-0.00397777
0.0107107
-0.00673293
0.0056514
-0.0034392
-0.0022122
0.000610433
0.00504097
-0.00223251
-0.00211512
0.0014953
0.0069472
-0.0084425
0.00206896
0.00591725
-0.00798621
0.000355413
-0.00801963
0.00766422
0.0044334
0.0117661
-0.0161995
0.000212569
-0.00766929
0.00745672
-0.00661336
0.00682593
0.00419406
-0.00661045
0.00241639
-0.00574197
0.00693188
-0.00118992
-0.00115374
-0.00458823
0.00651613
0.0046686
-0.0111847
0.414011
-0.220252
-0.00558577
0.01121
-0.0056242
-0.0119341
0.00387348
-0.0100559
0.00702341
-0.00503069
-0.00199272
0.00497745
0.00117016
-0.00614761
0.00730878
-0.00586778
-0.001441
-0.00121297
-0.0069788
0.00819177
-0.00105504
-0.0074417
0.00849675
0.00290772
-0.00919963
0.0062919
-0.0074117
-0.0071397
0.0145514
0.000257393
0.00692197
-0.00717937
0.000577048
0.00620333
-0.00678038
-0.000829891
0.00883557
-0.010908
0.00357644
-0.00315372
-0.0088065
-0.00745586
0.00660028
0.000855588
-0.00369689
-0.00375897
0.00701033
-0.00688328
-0.000127056
0.00351777
0.00349256
-0.0069504
0.0095755
-0.0026251
-0.00789002
0.000939616
-0.00537061
-0.00434332
0.00971393
0.00532719
-0.0172444
0.0119172
0.0121522
-0.00781978
-0.00433238
0.00736374
0.00478842
-0.0410723
-0.0135438
0.00572547
0.00346216
-0.00918763
-0.0108588
0.00701844
0.00384038
0.00349758
0.00337593
-0.00687351
0.0162531
-0.00752971
-0.0087234
0.0108459
-0.014914
0.0040681
-0.00435316
-0.00443148
0.00878464
0.000624263
-0.00968584
0.00906157
-0.00392976
-0.00776691
0.0116967
0.00955129
-0.00696549
-0.0025858
0.00406946
0.00553674
-0.0096062
-0.00235376
-0.00808126
0.010435
-0.00497647
-0.0048684
0.00984487
0.00271828
0.005138
-0.00785628
0.00692376
-0.00761858
0.000694817
0.00126499
-0.00977754
0.00851255
-0.0264041
0.0206093
0.00579489
0.00797768
-0.0343818
0.0103344
-0.00730959
-0.00302482
-0.00758641
0.00133094
0.00625546
0.00368791
0.00454143
-0.00822935
0.000922046
0.00318014
-0.00410219
0.058011
0.0240958
-0.0821068
-0.0278432
0.00909804
-0.00847377
0.00497543
0.00165626
-0.0066317
0.000151507
0.00603479
-0.0061863
-0.0220578
0.0150335
0.00702432
-0.0138908
-0.00816698
0.00241672
-0.00761552
0.0051988
-0.0411321
0.000471473
0.00846551
-0.008776
0.000310484
0.00516994
0.00611678
-0.0112867
0.00708041
-0.00252299
-0.00455742
0.0198377
-0.0106593
0.0109655
0.00651937
-0.0174848
0.000763664
-0.00940812
0.00864446
0.00184675
-0.0129876
0.0111408
0.000168974
-0.0129215
0.0127525
0.00510252
-0.00826282
0.0031603
-0.0103697
0.00351583
0.00685384
-0.00345223
-0.00546135
0.00891358
0.00308083
0.00549943
-0.00858025
0.00712775
-0.00682693
0.0044515
0.00391648
-0.00836798
-0.00949441
0.00445922
0.00503519
-0.00177667
-0.00771775
-0.00732447
0.00858366
-0.00125919
0.00850658
-0.000349691
-0.00815689
-0.00168799
-0.00203576
0.00372376
-0.00281791
0.0142516
-0.0114338
-6.79807e-05
0.012356
-0.012288
-0.000170071
-0.0104775
0.0106476
0.0077708
-0.0126335
0.00486267
-0.0113584
0.00328384
-0.00841986
-0.00293857
-0.00715085
-0.00502995
0.0121808
0.00354345
-0.0099198
0.00637636
-0.00803884
-0.00148744
0.00952628
-0.00654354
-0.00881191
0.00176343
-0.00597662
0.00421319
-0.00322227
0.0049211
-0.0230962
0.0115451
0.011551
0.00808043
-0.0013223
-0.00675813
-0.00586758
0.00680795
-0.000940371
0.014809
-0.00396304
0.00988359
0.00492538
0.0122901
0.00880115
-0.00763498
-0.00116618
0.0020664
-0.00463805
0.0369596
0.0108387
-0.00364001
-0.00719871
0.00817538
-0.0092766
0.00110122
0.00107812
0.00709726
0.00842925
-0.00892118
0.000491935
0.00432672
0.00410253
-0.0033678
-0.0165072
-0.0114709
-0.00866282
-0.00784442
0.00798547
-0.00195008
-0.0060354
-0.00662726
0.00610264
0.000524618
0.00239972
0.0016222
-0.00402192
-0.0134171
0.00607353
0.00734353
-0.00608651
-0.00551473
0.0116012
-0.0233342
-0.0191777
0.0425119
-0.0104615
0.00617833
0.00428313
-0.00571994
-0.00474153
0.0110842
-0.00824568
-0.00283851
0.00300194
0.00778726
-0.0107892
-0.00866329
0.00760141
0.00216393
-0.00895967
0.00679574
-0.0067953
0.00523832
0.00155698
-0.00184587
0.00345832
-0.00161245
-0.00460084
0.0162036
-0.0116027
-0.0247003
0.0200995
0.138645
-0.240837
-0.184787
0.0651666
-0.0200064
-0.04516
-0.0108286
0.00480382
0.00602482
-0.0118299
0.00100125
-0.00431785
-0.00570968
0.0100275
0.00556958
-0.00988743
-0.0123752
0.0216191
-0.00924385
0.0178189
0.0273192
-0.00570008
-0.0113861
-0.0409224
0.0523085
0.0306642
-0.0420503
-0.00122662
0.00759685
-0.00447012
0.0252812
-0.0208111
0.0125248
-0.0301722
0.0176474
0.00129649
-0.00856402
0.00726752
0.0183102
-0.00516841
-0.0131417
0.0152278
0.00308237
0.00538277
0.00514812
-0.0105309
-0.00545912
-0.0100469
0.0189804
-0.00893346
0.0035554
-0.00526827
-0.00307186
-0.0384188
-0.0343351
0.0727543
0.0422858
-0.0647307
0.0224449
0.0047707
0.00616505
-0.0109358
-0.00281485
0.00758554
7.7909e-05
0.00608715
0.00305008
0.0051093
-0.00815938
-0.00298389
0.00853292
-0.00554904
0.00605197
0.0019335
-0.0039285
0.00965397
-0.00256222
-0.00229696
0.00485917
-0.0106015
0.0143334
-0.00373194
-0.00627597
0.0150829
-0.00880695
0.0103033
-0.00147296
0.00673879
0.0111823
-0.00141738
-0.00976494
0.00388735
0.00415956
-0.0080469
-0.0115927
0.00654659
-0.00435901
-0.00675676
0.0111158
0.00920764
-0.00462759
-0.00458005
0.00180921
-0.00660211
-0.00420465
0.0108068
-0.00583844
0.00430453
-0.00850918
0.00320543
-0.00922396
0.00601852
-0.00630508
0.00951051
0.00588287
-0.00436666
-0.00151621
-0.00770619
0.00386055
0.00384564
0.00871256
0.00126132
-0.00997388
0.00295164
0.00408274
-0.00703438
0.00473027
0.00565502
0.00855729
-0.0103584
-0.00822621
0.00319083
0.00503538
0.0175077
0.0230673
-0.040575
0.0371417
-0.0194898
-0.0176518
0.000690707
0.00656757
-0.00725828
-0.00554669
0.00623739
0.00174047
0.00482709
0.00977229
-0.00466977
0.00348993
0.00558316
-0.00907309
-0.000176389
-0.00473362
0.0057417
-0.00154764
-0.00628126
-0.0115464
0.00932901
0.00221742
-0.0112053
0.0105083
0.00703626
-0.00301518
-0.00402108
0.00181921
0.0117352
0.011922
0.00558279
0.00615241
0.00681717
-0.0102915
-0.00146828
-0.00896205
0.0104303
0.0133475
0.00177443
-0.0151219
0.0210735
0.00954326
0.0335982
-0.00303901
-0.00548832
0.00852734
-0.00639721
0.00335819
0.00438171
-0.00499616
-0.00886082
-0.0287756
0.0376364
0.000437758
0.00792805
-0.00836581
0.0108757
-0.00870687
-0.00216883
-0.016727
-0.000452702
0.0171797
-0.0445559
0.0207737
0.0237822
0.0356034
-0.0261893
-0.0094141
0.00323246
0.00630822
-0.00954068
0.0132036
-0.020578
-0.000189668
0.00624164
0.00484863
-0.00503829
0.00417999
0.00206165
0.00429377
0.00519535
-0.00529711
0.00959088
-0.00230433
0.00749969
0.00872084
-0.0226116
-0.00621454
0.00522022
-0.00604968
0.00384697
0.0022027
0.00065475
0.0222205
-0.0254088
0.00318824
-0.00679034
-0.00401584
0.0052556
0.00153494
0.00568883
0.0072401
0.00874327
-0.00657934
-0.00666729
0.00666732
-0.0378735
0.0113491
0.0265244
0.00523872
-0.00699221
0.00175348
0.00700216
-0.00165205
0.00431162
-0.00265957
-0.0019005
0.0019005
0.0191128
0.0180289
-0.008296
0.00730144
0.000994554
0.0319164
-0.00100489
0.006686
0.00438146
-0.0110675
-0.0026213
0.0093073
0.00181632
0.00791835
-0.00973467
0.00673098
-0.0032334
0.00883296
-0.009888
0.0380227
0.0186789
-0.0567016
-0.00553253
-0.00523503
0.0107676
-0.0134712
-0.00325581
-0.000404317
-0.0130669
0.0141305
-0.0173863
-0.00630075
0.00081243
0.0256006
0.00190688
-0.0275074
0.0101552
0.0154454
-0.0269577
0.0288646
-0.0024403
0.0078145
-0.0053742
0.00286201
0.00539785
-0.00825986
-0.00397959
0.0039796
-0.00445534
0.00723539
-0.00278006
-0.00665742
-0.0342326
0.0170861
0.0171465
-0.0120121
-0.0076142
0.00489681
-0.00489683
-0.00364925
0.00364926
-0.0030544
0.0127813
-0.00972693
-0.00117366
-0.00744584
0.0086195
-0.0086281
0.00631408
0.00231402
0.0010513
-0.00557095
0.00451965
0.00604726
-0.00143121
-0.00461605
0.00709856
-0.0108403
0.00937199
-0.00692041
0.00689397
2.64325e-05
-0.00427234
-0.00212486
0.00643081
-0.0104086
0.00298715
-0.00298715
0.00459073
0.00364758
0.00524548
-0.0120335
0.00360773
0.00842582
-0.0148514
-0.000158607
0.01501
-7.33153e-05
-0.0100987
0.010172
-0.00695072
-0.00873642
0.0156871
0.0062716
-0.0040451
0.00279517
-0.00651373
0.00371856
0.0260429
-0.00051567
-0.0255272
0.0238263
0.00349282
-0.00740863
0.00832209
-0.000913456
-0.0115514
0.00471414
-0.0137611
0.00220964
0.0133786
-0.00866442
-0.0100798
0.00067169
-0.00669669
-0.00338313
0.000637237
0.00596304
0.0177064
0.0100836
-0.02779
0.00369302
0.00614659
-0.00983961
0.00732732
-0.0168172
0.00948985
0.00440042
-0.00440049
-0.00939996
0.00258715
0.00681281
0.00336674
-0.00861224
0.0052455
0.00289761
-0.0028976
0.00873512
-0.00573318
-0.0123104
0.0101552
0.00215524
0.00289604
-0.00717435
0.0042783
-0.0133494
0.0144284
0.00369067
-0.00712598
0.0034353
0.00633879
-0.00548517
0.00555583
-7.06571e-05
0.00580554
0.000229764
-0.00603531
-0.0209312
0.0240192
-0.00308792
0.0209667
-0.000233382
-0.0207333
0.0101429
0.00511259
0.0103118
0.0124399
-0.00388849
-0.0101083
0.00441235
-0.00830084
0.000208635
-0.0103169
-0.00400362
0.00594628
-0.00194266
0.00395463
0.00242915
-0.00638378
-0.00570908
0.0057091
0.00423303
0.00389927
-0.0081323
0.00206892
-0.00206892
0.00626517
-0.0108928
-0.00829285
0.00810335
0.000189501
-0.265322
0.0602196
0.205102
-0.166253
0.244676
-0.0784231
-0.431575
0.304896
0.00979256
-0.00114738
-0.00864518
-0.00657424
0.000842394
0.00573184
-0.00367819
-0.465509
0.321436
0.144072
-0.15301
-0.312499
-0.00102526
0.0112322
-2.64906e-05
-0.0148249
0.0139167
-0.00867363
-0.0052431
0.0138902
-0.00649733
0.00604156
0.00045577
-0.00452821
-0.00701598
0.0115442
-0.00714089
0.00607179
-0.00738588
-0.000984012
0.00836989
0.0221911
0.00406995
-1.07553e-05
-0.0209205
-0.0277832
0.034302
-0.00651876
0.0121411
-0.00662049
-0.00305378
0.00305379
0.00186154
0.00623318
-0.00809472
-0.00575701
-0.00255407
0.00831107
-0.00389547
0.00367912
0.00270085
0.00437956
0.00665547
-0.0111663
0.013398
-0.00223171
-0.000216809
0.0187743
-0.0185574
0.0213212
-0.021538
-0.00043816
-0.00515637
0.00559453
-0.0340281
0.00809063
0.0259376
-0.028504
-0.0055241
0.0346201
-0.0265294
0.00443443
0.00259842
-0.00703285
0.00575879
0.00679265
-0.0128959
-0.000210482
0.0131063
-0.0102948
-0.00260102
-0.00271118
0.0550852
-0.052374
-0.0146974
-0.0231761
-0.00492868
-0.0016939
0.001227
-0.00525214
0.00402514
-0.000326505
-0.00601656
0.00634306
-0.00641191
0.0060854
0.00299501
0.0136176
-0.0166126
-0.0141834
-0.00357068
0.0177541
-0.0111884
-0.00619826
0.00761857
-0.00142031
-0.00518067
0.00671382
-0.000908275
-0.0330797
0.000661243
0.0324185
-0.0145764
-0.0185033
0.0351993
-0.034538
0.0217341
-0.0189923
-0.00518041
-0.00119954
0.00119953
0.00442033
0.0011356
-0.00127937
0.0056997
-0.0143381
-0.015834
-0.0188083
0.00148328
-0.00148328
0.00348722
-0.00348724
-0.0020188
0.00201879
0.0059995
-0.00119531
0.00123794
-0.0235852
0.00591718
-0.0113571