/*--------------------------------*- C++ -*----------------------------------*\
  =========                 |
  \\      /  F ield         | OpenFOAM: The Open Source CFD Toolbox
   \\    /   O peration     | Website:  https://openfoam.org
    \\  /    A nd           | Version:  6
     \\/     M anipulation  |
\*---------------------------------------------------------------------------*/
FoamFile
{
    version     2.0;
    format      ascii;
    class       volVectorField;
    location    "1400";
    object      U;
}
// * * * * * * * * * * * * * * * * * * * * * * * * * * * * * * * * * * * * * //

dimensions      [0 1 -1 0 0 0 0];

internalField   nonuniform List<vector> 
29884
(
(7.47913 0.0590334 -1.04354e-16)
(5.32403 0.0253828 8.98673e-17)
(5.41208 -0.115443 4.83184e-17)
(7.11044 -0.0760158 9.0435e-19)
(7.21654 0.103611 -2.89194e-17)
(5.74373 0.155782 6.90483e-17)
(7.88815 -0.117827 -3.4709e-19)
(7.38856 -0.00131524 4.23101e-17)
(4.69359 0.121615 2.54934e-17)
(7.13536 0.0178116 7.30209e-17)
(7.44372 0.00875697 -3.19599e-17)
(7.20165 0.195511 1.71001e-17)
(8.07924 -0.132166 -2.59361e-17)
(7.16056 -0.112784 2.43914e-17)
(7.18306 0.0983691 -3.2618e-17)
(4.43202 -0.0563303 8.45234e-17)
(8.225 0.0499895 -3.52707e-17)
(6.66723 0.195798 -5.93766e-17)
(6.51788 0.163131 0)
(4.17662 -0.00378461 -1.64882e-16)
(7.7933 0.210068 1.44823e-16)
(4.94065 -0.037793 0)
(8.0061 -0.062457 -3.9816e-18)
(7.11443 -0.0216375 0)
(7.07079 -0.0131814 0)
(7.59558 0.0434335 -2.58532e-17)
(7.84713 -0.0107948 0)
(8.01796 -0.0445126 8.39504e-17)
(5.16121 -0.0249316 8.51199e-17)
(5.16137 0.113281 7.41779e-18)
(5.39931 -0.00804522 -1.43702e-17)
(4.81292 0.0892547 4.91905e-16)
(7.99153 0.0361048 -2.47613e-17)
(7.44274 -0.030909 0)
(7.27746 -0.059179 -7.67385e-17)
(7.50838 -0.105187 6.10248e-17)
(5.01494 -0.0351579 8.09926e-17)
(7.54923 0.135428 9.7005e-18)
(5.35375 0.146784 -7.74948e-17)
(7.77682 -0.151641 -3.72896e-17)
(5.02318 -0.0503563 0)
(7.05747 0.0709477 1.56233e-17)
(7.60404 0.19525 -4.71888e-17)
(7.23359 0.282713 -3.1039e-16)
(6.97348 -0.0161982 2.08443e-17)
(7.57498 -0.153144 -2.31074e-17)
(8.02227 -0.206118 0)
(7.67678 -0.115213 -6.6204e-18)
(4.80707 0.0345248 -1.03317e-17)
(8.36098 0.0912065 0)
(7.37439 0.125216 0)
(7.18458 -0.0741463 4.78215e-18)
(4.71548 -0.151987 3.67954e-17)
(8.41163 0.0280512 1.02421e-16)
(7.20079 -0.0624531 -8.14122e-17)
(7.08771 -0.13772 6.18884e-17)
(4.4112 -0.0181552 1.00582e-17)
(7.98159 -0.0542713 0)
(6.66402 0.0510658 6.38474e-17)
(6.89681 -0.141996 -1.01631e-16)
(7.76484 0.160591 -1.82395e-17)
(7.81359 -0.00936881 2.43183e-17)
(4.71664 -0.100587 0)
(8.13762 0.0522021 -3.90102e-17)
(7.12369 -0.0691324 2.86207e-17)
(7.00949 0.0799108 -6.32947e-18)
(7.45421 -0.0427148 8.94052e-18)
(7.82905 -0.115892 5.95532e-17)
(7.40843 -0.0944654 -3.9981e-17)
(7.33277 0.0673553 5.47094e-17)
(7.2475 0.196385 4.04254e-17)
(7.67253 0.0659842 -1.31189e-17)
(7.51796 0.101939 0)
(5.63189 -0.13886 0)
(7.30342 -0.105165 -4.97446e-17)
(6.91187 -0.0925424 -1.79862e-17)
(8.13439 0.105617 0)
(7.87884 -0.123033 0)
(8.08541 -0.116596 0)
(5.09613 0.0359448 0)
(7.67091 -0.0770022 5.14056e-17)
(5.23243 -0.0517828 0)
(7.11696 -0.138899 0)
(7.01564 0.0935837 2.71615e-17)
(6.59324 -0.0547051 -1.90939e-17)
(4.54109 -0.497365 -9.08567e-18)
(7.35664 -0.000295476 0)
(7.60336 -0.0314442 0)
(7.254 -0.108591 4.47853e-18)
(3.68708 -0.837336 1.82846e-17)
(7.18997 -0.198434 0)
(7.88603 -0.243817 -1.91769e-17)
(4.56152 -0.0902958 -5.18823e-17)
(3.35717 -0.709332 0)
(7.12235 0.125811 -4.27511e-17)
(1.66938 -0.37161 0)
(6.99611 0.0139495 -7.1867e-17)
(7.00705 0.0128556 9.51224e-17)
(7.47401 0.0548127 9.36583e-18)
(3.40443 -0.543506 0)
(7.01174 0.0369833 4.78161e-17)
(6.94238 0.0732205 1.07547e-16)
(7.65808 0.0147335 0)
(7.75249 0.0186716 -2.88355e-18)
(7.35752 -0.116439 -4.72068e-18)
(8.12191 -0.1166 0)
(3.83344 -0.63284 1.48744e-17)
(3.7165 0.0496343 -3.71535e-17)
(7.12216 0.132774 -4.85821e-17)
(6.97115 -0.326941 0)
(7.4009 -0.209855 0)
(1.53357 -0.216868 5.28188e-17)
(7.24962 -0.0793053 3.02986e-18)
(7.1466 -0.116142 0)
(7.3043 -0.118933 -2.57512e-18)
(6.97396 0.109491 -2.72925e-17)
(7.16243 0.115073 0)
(7.12961 -0.224856 0)
(6.76403 -0.0748881 0)
(6.64496 -0.311272 4.13303e-17)
(7.00361 0.00599747 0)
(6.85455 -0.300557 2.6597e-17)
(7.32051 -0.157133 4.12877e-17)
(6.78465 0.194979 0)
(7.03535 -0.0244674 1.28796e-17)
(7.04983 -0.191308 -6.15286e-17)
(7.80536 -0.268775 4.67576e-18)
(7.95586 -0.0381698 1.54488e-17)
(6.86829 -0.220928 -4.50717e-18)
(6.98767 0.13719 0)
(6.77207 0.166947 1.29785e-17)
(6.94866 0.119723 -1.46327e-17)
(6.96434 -0.1034 4.05501e-17)
(8.13234 -0.11612 0)
(6.88758 -0.086948 0)
(7.46782 -0.0883905 0)
(7.64962 0.23623 0)
(7.34489 -0.109885 6.41769e-18)
(7.53278 -0.143905 -1.59964e-17)
(7.53289 -0.130167 3.3096e-17)
(7.3929 -0.114864 0)
(7.28186 -0.0154434 2.48926e-17)
(7.6989 0.141986 -1.82817e-17)
(7.73804 -0.227098 -9.34293e-18)
(7.98073 -0.183652 -1.02046e-17)
(8.0058 -0.209085 1.00769e-18)
(7.75506 -0.17632 1.89484e-17)
(7.49038 0.176729 5.41344e-17)
(7.81089 0.117803 -4.55251e-17)
(7.74888 0.207164 4.96808e-17)
(7.63998 0.125124 0)
(4.31527 -0.11291 -2.3898e-17)
(3.95302 0.0239546 0)
(7.90549 -0.143938 -1.36742e-17)
(7.82375 -0.22074 2.32719e-17)
(7.88749 -0.163945 0)
(7.92933 -0.185826 -7.18154e-18)
(7.81662 -0.205662 0)
(7.86801 -0.120827 0)
(7.90319 -0.177588 0)
(7.86245 -0.15019 -2.35672e-17)
(7.03998 0.0273811 3.45667e-17)
(6.95725 -0.0469282 -3.50598e-17)
(7.54792 0.190839 -8.74747e-17)
(1.09711 -0.0670703 -1.16926e-16)
(1.04626 -0.00882726 1.11979e-20)
(4.91763 -0.0751854 0)
(4.7243 -0.00679375 0)
(7.008 0.042461 -4.02967e-17)
(7.95354 0.194068 5.2727e-17)
(7.35618 0.0476233 -1.57164e-16)
(6.98065 0.104126 0)
(6.97363 0.0751203 0)
(6.87195 -0.063245 -1.95191e-17)
(7.02373 -0.0623674 0)
(7.02072 -0.178913 7.80595e-18)
(6.82495 -0.259576 -6.90567e-17)
(5.16455 -0.0323666 7.42433e-17)
(7.07292 0.138919 -3.77975e-17)
(7.25237 -0.196397 -7.13787e-18)
(6.99221 -0.280099 -1.57248e-17)
(6.3185 -0.354914 -3.18907e-18)
(6.31544 -0.264132 3.962e-17)
(6.43287 -0.200259 7.52422e-18)
(7.16776 -0.104953 9.21902e-18)
(7.27343 -0.130045 0)
(7.0652 -0.0227422 -5.71502e-17)
(6.98552 -0.000205465 3.65949e-17)
(7.30006 -0.238349 -4.18175e-18)
(6.98227 0.109636 3.025e-17)
(7.37578 -0.171977 0)
(6.56186 -0.0701583 2.5792e-17)
(6.42772 -0.120736 -7.16426e-18)
(7.26068 0.159047 8.24057e-18)
(7.36187 0.127275 -3.2327e-18)
(7.03983 0.15454 0)
(6.84692 0.181023 0)
(7.37511 0.0543995 2.48875e-17)
(7.61655 -0.0178702 -7.55594e-18)
(7.46867 -0.129259 0)
(6.77077 0.0297307 0)
(7.59772 -0.0322403 0)
(7.53133 0.0592172 3.46104e-17)
(7.16899 -0.0112786 -3.48245e-17)
(7.37118 0.0700187 -9.85394e-17)
(6.57038 -0.288161 0)
(7.41438 -0.0733917 0)
(7.19179 -0.108793 0)
(7.33026 -0.0416008 0)
(7.85275 -0.119243 0)
(7.69853 -0.11903 0)
(7.8808 0.0655903 0)
(8.08489 -0.0802414 0)
(4.75358 -0.0768268 0)
(7.05537 -0.0960551 0)
(4.09728 0.95232 -3.13203e-19)
(6.31774 2.4762 -5.38621e-19)
(3.84242 -0.0603762 1.68005e-18)
(6.68368 2.52906 0)
(2.80417 -1.56318 -1.66389e-20)
(2.72524 -1.5376 1.42086e-17)
(7.32833 -4.17889 7.08975e-18)
(6.79331 0.317127 0)
(6.74898 2.19839 0)
(4.1957 -0.883108 -2.08776e-17)
(2.66843 -1.61038 -1.514e-20)
(3.88547 -0.796736 2.81844e-18)
(3.06236 -0.573789 0)
(2.49314 -5.36293 5.91913e-18)
(7.70021 -1.42268 0)
(5.05505 -4.29595 -9.83477e-20)
(3.8011 -0.818272 3.15916e-18)
(4.12529 -0.206366 5.00651e-21)
(6.40955 -4.13157 -2.61107e-18)
(6.48423 -4.11773 -2.3537e-18)
(4.11974 0.014993 5.75222e-19)
(4.07209 0.0388021 -7.10478e-19)
(6.72887 0.234465 -8.14977e-17)
(3.88791 -0.112136 0)
(5.65841 -3.89442 -2.90903e-18)
(5.93951 -3.77336 0)
(1.6876 -0.919488 0)
(4.03279 0.694033 -1.45517e-18)
(6.0748 -4.22029 4.64256e-18)
(6.35821 -3.41291 -2.15781e-18)
(6.4547 1.84044 0)
(3.8381 -1.52292 2.79993e-18)
(3.82149 -0.513475 0)
(5.85099 -1.29998 3.54443e-18)
(7.00694 -2.30197 -1.42538e-17)
(6.57014 -3.59478 -4.42011e-18)
(6.41586 2.85149 1.6646e-20)
(6.39094 2.24846 1.72686e-18)
(6.36933 2.33962 -2.20628e-18)
(2.64412 -1.20375 0)
(2.69692 -1.41045 7.48704e-20)
(2.97033 -1.518 -1.83137e-17)
(2.87285 -1.46626 -2.55418e-20)
(6.35205 -2.00733 -7.58223e-18)
(5.94797 -1.84013 6.03796e-18)
(6.76843 -1.93875 0)
(6.23965 2.43842 2.38251e-18)
(5.88405 -4.34536 -2.08939e-18)
(1.77811 0.75635 -5.87319e-17)
(6.17553 2.84309 0)
(3.65597 -1.3565 0)
(7.33419 -3.61365 1.52729e-17)
(6.54784 1.95393 2.14531e-18)
(6.59762 2.00023 4.99121e-19)
(3.65405 -1.26722 0)
(6.52224 2.46659 -5.80587e-20)
(6.49475 2.48187 7.78661e-20)
(3.01041 -1.42998 9.24553e-18)
(3.52732 -1.99438 4.40165e-19)
(3.42185 -2.17608 3.58753e-18)
(3.95586 -1.08659 4.24039e-17)
(3.7426 -1.04966 0)
(3.08212 -0.712732 0)
(3.1926 -0.782006 5.06407e-19)
(5.90132 -4.07014 2.16604e-18)
(4.01182 -0.276201 0)
(4.04653 -0.705842 -6.86595e-19)
(6.87544 -0.413729 2.06819e-17)
(6.46779 2.46741 0)
(6.58133 0.197653 5.53298e-17)
(6.36507 2.13246 0)
(6.40881 2.17971 0)
(6.30052 -4.58403 0)
(0.950754 -0.471026 8.48751e-17)
(6.87533 0.310411 -7.71325e-17)
(2.91373 -0.396179 -9.7899e-18)
(4.0747 -0.412563 2.37152e-18)
(4.11212 -0.274523 -1.12442e-18)
(5.8904 -4.20142 -1.29689e-18)
(6.46358 -4.53996 -1.05616e-18)
(6.46663 -4.49585 -3.29219e-18)
(6.27877 2.34363 3.47616e-18)
(4.06589 -0.48542 -3.82272e-18)
(4.04929 -0.629048 1.43604e-18)
(6.10238 -4.07021 -2.13009e-18)
(6.77669 -3.51612 0)
(3.89221 -0.976323 0)
(3.94164 -0.919607 0)
(3.89404 -1.06292 0)
(3.11875 0.449924 -1.73206e-17)
(3.82485 -1.75571 9.06525e-18)
(4.19327 -1.34214 0)
(6.1321 0.120152 -1.66597e-17)
(6.33476 2.32975 -5.6025e-19)
(6.30415 2.26651 -2.00356e-18)
(6.34609 2.2711 -2.25569e-18)
(6.29519 2.32464 -4.41733e-18)
(2.95697 -1.66673 -2.0572e-17)
(5.71138 -4.2161 8.877e-19)
(5.77158 -4.25544 -1.91121e-18)
(6.50385 -4.47684 5.00191e-18)
(6.53502 -3.81723 0)
(3.96507 -0.642517 2.62099e-18)
(7.41958 -3.27459 -4.73779e-18)
(7.37145 -3.45079 -1.02309e-18)
(7.223 -2.91742 3.91963e-18)
(3.3757 0.125077 0)
(3.23763 0.362343 -1.72249e-17)
(3.2197 0.155634 0)
(6.58553 -4.56162 -1.84308e-18)
(6.48797 2.40786 8.41013e-20)
(3.05927 -1.93565 -1.37267e-17)
(2.97964 -1.74136 1.82348e-17)
(3.09235 -1.7544 2.20811e-17)
(2.91606 -1.92836 6.43927e-18)
(6.4245 2.39633 1.02757e-18)
(6.47222 2.37192 -1.41003e-18)
(6.45323 2.35121 3.10012e-19)
(6.45275 2.40759 3.65584e-19)
(4.02963 0.763204 2.82079e-18)
(4.00083 0.91284 -1.61083e-18)
(6.81341 0.282942 -2.56652e-19)
(6.60829 -0.848474 -3.13809e-17)
(2.88359 -0.731606 -1.99163e-17)
(2.8612 -0.970653 0)
(7.17076 -3.17254 -5.65815e-18)
(7.51015 -0.453843 -3.93098e-17)
(2.84625 -1.34785 5.78171e-18)
(5.82491 -0.848667 -2.05919e-18)
(7.11268 -0.241938 9.35988e-18)
(2.85224 -0.586605 0)
(2.95138 -0.572876 1.8839e-17)
(2.91742 -0.5013 6.71565e-20)
(2.89435 -0.626542 -5.43097e-18)
(3.59526 -0.0723371 3.17407e-19)
(3.59237 -0.250453 0)
(3.38524 -0.00801498 -6.77641e-18)
(6.53059 2.44121 0)
(6.51445 2.41996 0)
(6.5612 2.42463 1.39068e-19)
(3.29604 -0.441827 0)
(3.13093 -0.45434 3.26169e-17)
(3.07995 -0.105373 0)
(3.09658 -0.327856 -3.53026e-17)
(3.15609 -0.177788 0)
(3.40879 0.59268 -6.41396e-18)
(3.64799 0.283576 3.72199e-17)
(6.20164 0.169986 -6.00676e-17)
(6.75572 2.10487 -7.25513e-19)
(6.36875 2.36817 8.05033e-19)
(6.4006 2.39273 -1.65105e-18)
(6.6953 -0.615338 6.16506e-18)
(6.74596 -0.396542 0)
(1.12839 0.414616 0)
(2.68398 -0.545574 -8.23807e-18)
(6.98265 -3.28268 0)
(6.68563 -3.46857 -1.33292e-17)
(7.1086 -0.260004 -2.1434e-17)
(7.13351 -0.24486 1.67563e-17)
(7.06634 -0.295968 0)
(6.2501 2.48862 1.21545e-18)
(6.29932 2.55265 5.88485e-19)
(6.83329 -3.86307 4.55013e-19)
(6.491 -4.55708 0)
(6.5505 -4.56136 2.53506e-18)
(6.48732 -4.60326 2.66814e-18)
(5.25363 0.238397 9.97052e-17)
(6.5092 -0.480121 -5.51545e-17)
(6.52691 -0.598369 0)
(6.59722 -0.40773 -2.41842e-17)
(6.19079 -3.92318 0)
(6.34898 -3.93405 5.32852e-18)
(6.26664 -4.01366 -9.25759e-21)
(6.2343 -3.89242 -4.6943e-18)
(4.22899 -0.350378 0)
(3.98289 -0.119143 -2.11761e-18)
(3.90633 -0.323749 -3.25316e-17)
(4.24185 -0.20642 0)
(6.44653 -3.98085 2.4823e-18)
(6.50595 -4.06744 2.33045e-19)
(6.54159 -3.92159 -1.70419e-18)
(4.06425 0.452496 2.40527e-18)
(4.00428 0.342137 0)
(6.27844 -3.513 0)
(6.07909 -3.69105 -4.54641e-18)
(3.94222 0.423538 -5.42167e-19)
(3.64784 0.7891 -8.25108e-18)
(4.30225 -0.538112 -5.31328e-19)
(4.05294 -0.648856 1.79434e-17)
(4.20287 -0.669926 -1.14348e-17)
(4.22429 -0.436782 1.03569e-17)
(3.15745 -2.78207 -2.43695e-18)
(6.68002 0.255752 9.92164e-18)
(6.6682 0.227046 0)
(6.88153 0.142265 0)
(6.81531 0.17532 5.58632e-18)
(4.0219 1.17808 0)
(4.06561 1.03918 0)
(2.89503 -0.184529 -2.33993e-17)
(2.88508 -0.0668814 1.61503e-20)
(2.81171 -0.211429 1.07713e-17)
(3.38619 -1.25426 0)
(6.7353 -1.8123 0)
(3.9122 1.63915 -9.16774e-20)
(4.0273 1.50178 -1.90713e-18)
(3.97154 0.990497 -1.53923e-18)
(5.56104 -3.96789 0)
(3.1602 -1.19013 9.09892e-18)
(3.24002 -1.05542 1.79177e-17)
(3.02654 -1.14945 0)
(3.56449 -0.508418 0)
(3.81489 -0.33658 4.21155e-17)
(3.64819 -0.302068 -5.17757e-18)
(3.79267 -0.502896 -3.06504e-17)
(3.11557 -1.45849 1.79486e-17)
(3.27837 -1.34028 0)
(3.18152 -1.29125 -1.88529e-17)
(3.24443 -1.46987 0)
(7.6116 -0.40041 1.40503e-17)
(3.69191 -1.41306 0)
(3.48795 -1.28047 0)
(3.66007 -1.21565 0)
(3.49939 -1.43556 1.49952e-17)
(6.88993 -2.5425 0)
(7.10526 -2.39533 -7.69318e-18)
(3.79846 -1.18756 -8.23626e-19)
(3.87748 -1.10851 0)
(3.8654 -1.18988 7.41733e-19)
(3.81656 -1.11617 0)
(6.90709 0.0801933 3.50946e-19)
(6.87144 0.0153164 0)
(6.52465 0.317452 3.25935e-17)
(6.76766 -3.79696 2.04265e-19)
(6.6443 -3.65645 4.04777e-18)
(6.80679 -3.70183 3.55725e-18)
(6.6112 -3.77349 4.41746e-18)
(6.87811 2.07532 0)
(7.25147 0.443682 -2.77838e-17)
(4.52999 -1.5415 1.85751e-17)
(4.61693 -1.24683 -3.42754e-17)
(6.99726 -0.343545 1.70465e-17)
(7.09222 -0.272268 -1.15438e-18)
(7.01682 -0.316533 -1.11943e-17)
(6.86348 1.36714 2.1711e-18)
(4.06862 -0.200337 -3.37019e-17)
(2.09275 -0.194527 0)
(6.09611 -0.468373 -2.32069e-17)
(6.21327 -0.455446 5.3338e-18)
(6.41753 2.9217 -1.02593e-19)
(6.24385 -4.15331 0)
(6.26748 -4.06924 -3.4182e-20)
(6.33471 -4.09724 3.07813e-18)
(6.20758 -4.0928 2.79891e-18)
(4.29476 -1.22824 0)
(4.51253 -0.914015 -5.91656e-18)
(4.31983 -0.965236 0)
(4.51959 -1.15793 3.76837e-17)
(6.90503 0.113394 0)
(6.91447 0.077053 1.32717e-17)
(6.90309 0.0949145 0)
(7.00338 0.0731063 5.27035e-19)
(7.00016 0.0921972 -1.62995e-17)
(7.56617 -0.181023 0)
(7.23133 -0.22294 -4.814e-18)
(7.36708 -0.221571 4.97032e-18)
(7.40798 -0.179201 0)
(6.64232 0.184418 0)
(6.75471 0.0928465 -6.93775e-17)
(6.72194 0.163981 4.97062e-18)
(6.65723 0.134573 4.28314e-17)
(6.0467 -4.18022 -4.903e-18)
(5.97589 -4.09625 0)
(5.95598 -4.18088 0)
(6.06622 -4.1215 0)
(6.27796 2.42526 1.2289e-18)
(6.31062 2.45017 -6.8084e-19)
(6.29898 2.38632 1.02341e-18)
(2.85799 -1.05236 0)
(2.76727 -1.15751 7.03348e-18)
(2.77464 -1.07634 -7.41369e-18)
(2.86349 -1.15231 -5.68809e-18)
(6.51817 0.211906 -9.23321e-18)
(6.39958 0.242338 3.6628e-18)
(6.46669 0.185745 9.22031e-17)
(2.33674 -0.307867 -2.09867e-17)
(2.10307 -0.017646 2.36559e-17)
(6.9427 0.148466 0)
(2.15091 -0.198435 -9.82876e-19)
(5.40548 0.114195 -1.19514e-16)
(6.99571 0.0209562 4.59785e-17)
(7.01991 0.0762377 1.94122e-17)
(2.3121 -1.14907 -6.62828e-18)
(2.55621 -1.20644 1.22032e-17)
(7.0115 0.117217 5.72225e-17)
(7.01032 0.0848124 6.2432e-17)
(7.009 0.0919777 -2.05666e-17)
(6.95846 0.204509 8.23861e-17)
(7.13068 -2.25059 1.48065e-17)
(7.00334 0.243643 0)
(6.04059 -0.0857012 1.5368e-17)
(1.59055 -0.267261 -3.0222e-20)
(2.13963 -0.325428 0)
(6.77896 0.235347 -5.67064e-17)
(3.71391 -1.21268 0)
(7.43464 0.0159853 -4.58976e-17)
(6.99971 0.144098 4.29823e-17)
(6.79977 -0.0133666 0)
(7.8602 -0.415376 0)
(7.33836 0.33726 0)
(7.32364 0.41042 3.11805e-17)
(1.71611 0.508679 1.96482e-17)
(7.72922 -0.289115 7.63353e-17)
(7.66643 -0.351517 0)
(7.13852 0.176418 -5.14138e-18)
(6.85242 0.280258 0)
(7.23022 -2.43553 7.90351e-18)
(6.08017 -0.0728937 1.35787e-17)
(7.17499 -0.167784 -1.39518e-18)
(7.11618 -0.216501 3.28463e-18)
(7.15765 -0.194678 4.54445e-19)
(7.57091 -0.229068 0)
(6.65542 -0.441706 -6.10831e-18)
(6.63305 -0.554661 8.4288e-18)
(8.09486 -0.223237 3.63547e-17)
(8.14542 -0.13709 -3.69615e-17)
(8.06204 -0.131576 8.0488e-17)
(6.95642 -0.124187 2.26286e-18)
(6.85933 -0.102164 2.31152e-18)
(6.97562 0.181283 2.43673e-17)
(6.97064 0.15563 2.39125e-17)
(7.00055 0.0233605 2.56648e-17)
(7.00304 0.0370365 5.59794e-17)
(6.42167 -0.366069 0)
(3.30823 0.527997 0)
(6.79748 -0.448039 0)
(6.77503 -0.566364 0)
(7.14924 -0.167799 4.06788e-19)
(6.98382 0.257932 -2.49991e-17)
(6.2923 -0.0855317 -8.36498e-18)
(7.00351 0.171775 -4.40467e-17)
(6.99336 0.212107 0)
(6.99246 0.193611 9.50099e-19)
(2.10952 0.318641 0)
(6.93671 0.115579 -1.29898e-17)
(6.94644 0.104322 1.28304e-17)
(7.3406 -3.24782 6.99447e-18)
(7.28589 -2.93481 0)
(7.30943 -2.81709 2.90259e-18)
(7.39877 -0.371183 -6.7306e-17)
(7.16618 -0.0548188 0)
(8.27515 -0.0261638 0)
(6.60862 -0.0606977 -2.56717e-18)
(6.56401 -0.0537835 -1.88834e-17)
(6.8621 -0.0580716 2.65735e-17)
(4.64741 -0.260066 6.3415e-17)
(4.85904 -0.257796 0)
(7.50057 -0.392406 -7.76433e-17)
(7.44469 -0.365019 6.11224e-17)
(8.06758 0.0349491 -3.39555e-17)
(8.16773 -0.118268 0)
(6.02363 -0.156128 0)
(7.06696 -0.00417777 0)
(7.17957 0.389528 1.0472e-17)
(7.15799 0.33961 0)
(8.0672 -0.137591 0)
(8.27193 -0.104394 -2.22164e-17)
(1.72456 0.552171 0)
(7.11822 -0.248497 -9.33934e-19)
(7.25242 0.00917231 0)
(4.62053 -0.738291 -3.05525e-17)
(7.22272 0.122711 2.12253e-19)
(7.23255 0.0807958 5.72624e-18)
(1.01705 -0.0860332 -8.0879e-17)
(3.73019 0.430917 1.5244e-17)
(3.57867 0.614316 -9.51414e-18)
(6.7984 0.213037 5.00706e-17)
(6.99742 0.054035 -2.3923e-17)
(6.99266 0.0725749 -2.51871e-17)
(5.39647 -0.999642 -3.04519e-17)
(6.49458 2.01951 -1.93758e-18)
(6.15657 0.0110627 -3.47778e-17)
(6.03126 -0.0421313 0)
(2.72634 -1.22366 1.23798e-17)
(2.75384 -1.32161 -1.25453e-17)
(6.66176 0.0815146 -4.32177e-19)
(6.55319 0.000758426 7.32451e-17)
(6.65223 0.0143338 0)
(6.9997 0.0936936 5.17313e-17)
(7.00294 0.125973 1.96524e-18)
(2.52467 0.66414 0)
(6.96578 0.248895 -5.23542e-17)
(6.60873 0.242848 -5.40301e-17)
(6.57684 0.314042 -3.21977e-17)
(6.86595 0.234257 9.70934e-17)
(6.90414 0.235084 -6.98986e-17)
(6.921 0.199042 -2.78589e-17)
(7.29988 0.05592 -5.43852e-17)
(6.2734 -0.0158407 2.369e-17)
(6.38915 0.0451393 -5.83965e-17)
(6.17256 -0.176537 -1.34987e-17)
(6.28697 -0.09554 -8.26864e-17)
(7.51971 0.00980481 0)
(7.66953 0.0759144 -2.99363e-18)
(7.17643 -0.142581 -2.07323e-17)
(7.87397 -0.00420208 5.31101e-17)
(6.58877 2.08618 1.22247e-18)
(6.98093 0.137426 3.48934e-18)
(7.0486 -0.318151 0)
(7.08707 -0.268734 6.08673e-18)
(4.39917 -0.438086 0)
(4.69204 -0.476102 6.68827e-17)
(7.46799 0.186196 -5.15447e-17)
(7.82282 0.155568 -2.51265e-17)
(7.52346 0.116692 -9.16018e-18)
(7.43758 0.138905 6.02716e-18)
(5.66678 -0.119955 0)
(5.47243 -0.154605 0)
(3.46286 -1.53364 -2.08206e-17)
(3.26368 -1.54905 0)
(3.18656 -1.72139 -1.76676e-17)
(2.83062 -1.68801 -1.54861e-17)
(7.0167 0.0538418 -7.47136e-18)
(6.73345 0.202431 0)
(6.81325 0.190251 0)
(7.52409 0.0273291 0)
(7.85882 0.0340224 -6.3653e-17)
(4.06618 0.223418 -2.82737e-17)
(4.25993 0.178742 2.38887e-17)
(8.34342 0.0807446 -1.51501e-17)
(8.21165 0.143726 -1.88864e-16)
(8.06922 0.0425842 -7.08686e-17)
(7.14441 0.0787207 0)
(7.70597 0.235745 0)
(7.03377 0.0809354 0)
(7.41978 -0.0503753 0)
(7.0253 0.186449 -4.69588e-16)
(4.90735 0.0318085 5.29144e-16)
(7.45909 0.175931 8.75574e-17)
(7.31649 -3.909 0)
(7.38279 -3.75136 0)
(6.98837 0.0253216 -2.47748e-17)
(6.95224 0.0471869 -5.82681e-17)
(7.02187 0.0419826 1.92173e-17)
(6.93706 0.0611807 8.47967e-17)
(7.90154 -0.257234 6.19406e-17)
(5.017 -0.0363731 -4.45681e-17)
(5.18257 -0.0990888 -5.70264e-17)
(5.34878 -0.00911189 8.94196e-17)
(6.89455 0.123381 0)
(6.88267 0.146779 0)
(6.85342 0.181605 0)
(6.8746 0.173079 -2.87092e-17)
(6.83347 0.214496 0)
(7.00136 0.0624865 3.83896e-17)
(7.31279 -0.0724231 5.56167e-17)
(7.02519 -0.125731 -4.73506e-17)
(7.56581 -0.362641 1.04865e-16)
(7.65931 -0.297192 -7.01038e-17)
(7.63902 -0.276382 -6.47659e-17)
(7.6176 -0.259994 0)
(7.44797 -0.274897 2.45489e-17)
(7.51955 -0.299812 -2.44777e-17)
(4.77126 -0.0790939 -1.89476e-17)
(6.90877 -0.0360964 -7.16041e-18)
(7.82099 -0.229676 2.24778e-17)
(5.00068 -0.409514 0)
(5.17283 -0.353009 -2.53668e-17)
(5.37513 -0.356847 -4.37579e-17)
(3.25592 0.472003 8.82593e-18)
(3.28015 0.532049 7.7773e-18)
(6.39724 0.104211 2.87342e-17)
(6.30588 0.134153 0)
(3.46488 -0.878079 -3.15691e-18)
(3.38149 -1.04802 0)
(7.69668 -0.100215 -1.48082e-17)
(7.85107 0.0307317 0)
(7.77755 0.110202 2.8629e-18)
(3.78569 0.890486 3.85212e-18)
(3.74278 0.882311 3.59918e-20)
(5.09633 -3.18857 4.59648e-19)
(5.11139 -3.27218 -4.1989e-19)
(2.63494 -0.913395 0)
(4.06821 1.90556 -1.15905e-18)
(7.95561 0.168738 -6.99016e-20)
(5.92348 1.03743 0)
(6.53212 0.927549 8.13475e-20)
(6.21834 0.862658 -2.51821e-19)
(2.52726 0.435415 0)
(5.97205 -2.26853 -3.54276e-19)
(9.4996 1.11667 -1.03647e-18)
(8.02853 0.407972 2.93676e-19)
(9.01993 -0.321947 2.34989e-18)
(6.53637 3.27841 -1.06789e-19)
(2.63845 0.458233 4.15965e-18)
(5.54842 -4.34161 9.42164e-19)
(6.94568 -4.72869 0)
(3.71677 -0.75395 0)
(9.42777 1.09892 0)
(5.48683 -4.25566 0)
(5.55405 -4.29234 0)
(6.11928 2.14182 5.09562e-20)
(6.12334 2.16153 0)
(6.47956 0.607065 1.56608e-19)
(7.12598 0.819622 2.57994e-20)
(7.1204 0.861902 -2.89325e-20)
(5.95687 0.960967 1.67719e-19)
(7.43295 -1.1952 1.42522e-19)
(7.46236 -1.2821 7.21202e-20)
(5.97777 -4.6653 1.00567e-18)
(6.25709 0.848613 -1.42673e-20)
(6.32209 0.811212 0)
(7.56216 1.01566 1.69019e-19)
(7.47027 0.751998 -8.10034e-21)
(7.47171 0.78956 -2.36112e-19)
(7.17347 0.866052 0)
(6.59457 -2.18181 0)
(6.59163 -2.12611 -3.38161e-21)
(3.48054 -2.28067 2.07386e-18)
(6.39167 1.02558 1.10462e-19)
(6.38717 0.993922 -2.94208e-20)
(5.44535 -3.96888 0)
(1.54131 -2.05515 3.4325e-17)
(3.95056 1.76813 8.02974e-19)
(4.00403 1.79791 -1.57003e-20)
(2.55195 0.0268606 4.42304e-18)
(4.16439 -1.67454 -1.90932e-17)
(6.02863 2.57854 5.0631e-19)
(8.67709 0.812083 3.92371e-19)
(6.59896 -4.75357 -2.22741e-19)
(2.35927 -0.962045 -1.58138e-18)
(6.65574 2.27391 0)
(6.75403 2.48191 -4.31575e-20)
(6.13107 -2.44258 1.51811e-19)
(3.45979 1.40039 -1.89962e-20)
(6.91482 -4.67262 -2.92259e-19)
(6.93276 -4.66024 7.63856e-19)
(6.1201 -1.57471 0)
(7.26633 -1.46316 0)
(7.07946 -1.73226 -1.51204e-19)
(6.93767 2.91213 -2.4711e-19)
(7.2638 0.596462 -1.06094e-19)
(7.34538 -1.58632 9.24722e-21)
(6.33628 2.32863 0)
(4.84992 0.880966 0)
(8.43188 0.249542 0)
(6.00871 -2.39614 -1.01246e-19)
(2.85732 -3.46781 -2.59431e-20)
(2.97202 -3.24608 1.33558e-18)
(6.80519 -0.798777 0)
(6.81828 -0.901722 9.38996e-18)
(6.32827 -4.71745 -1.02643e-18)
(6.89522 2.7216 -1.20911e-19)
(3.33337 -1.89199 1.29274e-18)
(7.89909 0.708391 -5.07975e-19)
(5.96643 -4.71775 0)
(6.478 3.32203 0)
(6.41586 3.28459 3.48345e-20)
(6.07631 2.62971 0)
(5.09248 -3.2894 -4.46978e-18)
(6.57357 3.70426 0)
(6.72218 2.80614 4.66933e-20)
(6.63991 0.989287 0)
(4.18555 0.970358 5.73925e-19)
(4.16229 0.930396 2.82345e-19)
(6.14897 0.643316 4.83979e-19)
(7.80845 0.743888 0)
(7.79634 0.786439 0)
(7.88213 0.754388 5.01444e-19)
(5.6843 -2.77518 9.15781e-18)
(6.94074 1.07582 1.03998e-21)
(8.22563 -0.520209 0)
(8.20028 -0.436905 -1.0443e-19)
(2.33186 -2.015 5.38799e-18)
(6.87034 0.834508 -1.46251e-20)
(6.89132 0.863286 0)
(2.70378 -0.134205 6.48459e-18)
(2.76556 0.0335118 0)
(8.46377 -0.224747 -8.06274e-19)
(8.45273 -0.172113 -5.30242e-19)
(6.22565 3.32387 -9.35828e-22)
(7.04369 -4.67502 3.34197e-18)
(3.81053 -0.88849 1.69861e-18)
(6.79254 2.3669 1.46538e-20)
(6.73862 2.68904 -1.76327e-19)
(6.37374 2.46427 1.50626e-18)
(7.82524 -0.795656 -6.4721e-21)
(2.6744 -4.47263 6.36488e-18)
(7.04103 0.872734 -1.73892e-20)
(7.04112 0.836432 9.81489e-21)
(7.5801 3.17764 3.8238e-19)
(7.27952 -1.61264 0)
(7.13386 -1.68333 8.39493e-20)
(5.75829 -4.64959 1.39693e-18)
(1.61403 -1.37563 -6.81435e-18)
(4.2661 1.48592 2.15363e-18)
(8.28557 -0.83909 9.16284e-19)
(5.58014 -2.68477 -2.37555e-19)
(5.59073 -2.75556 5.83536e-19)
(4.10935 1.60985 -9.09056e-19)
(4.04416 1.75087 -1.20754e-18)
(7.36911 -1.51451 -8.196e-21)
(7.34663 -1.46544 6.39215e-20)
(7.45333 -4.11902 0)
(8.0031 -5.02064 0)
(7.70019 -0.725195 2.67592e-19)
(8.14142 -0.43375 8.17477e-19)
(8.1873 0.923572 0)
(3.72791 0.974151 -3.62329e-18)
(7.40037 0.957283 0)
(7.81379 -3.22141 9.80274e-19)
(2.40527 -2.12282 1.98602e-17)
(7.78196 -4.34444 0)
(6.4734 2.2854 -5.98173e-20)
(5.44602 -4.27017 -3.4978e-19)
(5.4545 -4.29046 1.458e-18)
(6.25508 2.37755 0)
(6.28775 2.36979 -3.63229e-19)
(6.7872 2.25461 0)
(4.45885 -0.0486684 0)
(6.41999 0.545757 -9.73342e-20)
(9.14693 -2.72056 1.534e-18)
(6.0252 -2.37095 0)
(6.6217 -2.72037 0)
(6.59643 0.796022 -8.76128e-20)
(7.06622 -4.28783 1.01292e-19)
(6.58066 -0.880191 1.6353e-17)
(6.93369 -1.23016 3.05249e-20)
(7.46336 -4.80233 -2.25098e-18)
(7.51838 -4.77841 0)
(6.02944 1.27128 0)
(2.1851 -4.09803 1.0009e-17)
(3.40243 0.648093 -1.805e-18)
(6.73193 3.42004 2.16153e-19)
(6.32003 -2.10632 1.06726e-19)
(6.09194 3.16463 0)
(4.22205 1.34181 8.12614e-19)
(4.28877 1.25597 1.55331e-18)
(7.24719 -0.749645 -3.64837e-19)
(5.84925 1.05681 3.10189e-19)
(7.01596 -1.50382 -1.03558e-20)
(7.02211 -1.57816 1.56449e-19)
(7.7318 1.0619 -1.99303e-19)
(6.51847 0.571036 -1.69268e-19)
(6.89262 0.770103 0)
(6.97931 0.764582 7.82762e-21)
(5.02117 -3.29611 0)
(4.84206 -3.33833 0)
(3.87215 -0.727142 0)
(2.69006 0.572841 -3.40447e-18)
(2.65251 0.536738 0)
(2.6626 0.683545 0)
(7.4139 -0.239951 1.03542e-19)
(6.87015 2.6863 4.20064e-20)
(7.58535 3.23136 2.18729e-19)
(3.95016 -1.53939 0)
(3.8924 -1.5606 7.32919e-19)
(4.88018 0.848987 0)
(6.62903 2.30936 8.82745e-21)
(4.27383 1.71598 0)
(2.55918 -0.911679 4.49129e-18)
(4.67367 -0.0570581 2.23449e-18)
(4.73059 -0.0713534 -9.59891e-20)
(7.89539 0.581943 -4.83379e-19)
(6.81096 0.646959 7.91759e-18)
(6.69396 2.73451 3.30018e-19)
(4.46255 0.0822227 0)
(4.48373 0.0186026 0)
(7.52222 1.43749 -3.88676e-20)
(6.57578 2.30974 0)
(6.69518 -4.7335 0)
(6.3595 -0.53987 -7.03781e-21)
(6.84375 -4.73175 -1.07483e-18)
(6.27676 0.951815 -1.17572e-19)
(6.26845 0.915718 1.7827e-19)
(3.71767 -0.673033 -9.98863e-19)
(6.6329 -1.58316 3.14481e-20)
(7.05042 -5.04018 -4.78926e-19)
(6.63872 2.22597 1.89134e-20)
(6.72458 -4.66167 5.76708e-19)
(7.0942 0.398681 -1.13798e-20)
(7.03398 0.400263 -3.93065e-21)
(4.1842 1.70043 -1.70027e-18)
(4.49092 0.811261 0)
(4.48761 0.867986 3.02381e-21)
(4.83402 -4.56233 6.82999e-19)
(6.48805 0.390344 0)
(6.45912 2.17263 1.46411e-19)
(6.02877 -4.69028 0)
(6.02435 -4.7163 1.03311e-18)
(4.32491 0.604102 -2.56516e-19)
(6.73508 0.865005 0)
(6.80831 0.879878 0)
(6.58277 2.16527 1.45773e-20)
(6.73983 2.27475 1.78937e-21)
(6.78457 2.31127 -1.43717e-20)
(4.72423 -5.06829 -3.532e-19)
(8.10595 0.514498 -3.79745e-19)
(8.19096 0.510408 0)
(9.0834 -2.76475 3.09385e-18)
(7.22881 -1.58272 -9.93335e-20)
(7.22545 -1.5087 -4.55394e-20)
(7.14365 -1.62296 2.27399e-19)
(5.8905 0.451915 8.33023e-20)
(5.89086 0.509852 0)
(6.18284 0.311699 0)
(6.16339 0.265472 0)
(7.43531 -0.722019 0)
(7.47219 -0.689456 0)
(8.53105 0.993071 5.86222e-19)
(5.71095 3.36733 1.55817e-19)
(6.82285 2.92004 2.34438e-19)
(6.87102 2.89961 0)
(7.35961 -4.30456 4.80785e-18)
(6.0186 -0.352571 0)
(7.77933 -4.92448 0)
(4.49647 0.472437 8.46806e-19)
(6.68241 -4.70086 -6.54604e-19)
(6.61214 -4.71323 1.39006e-18)
(7.75358 -4.6873 3.52765e-19)
(6.10904 -1.74472 3.87241e-19)
(7.05647 -4.84149 0)
(6.55091 2.19819 3.37986e-20)
(6.50832 2.16112 0)
(8.1843 -1.80807 -5.37069e-19)
(8.13532 -1.13801 -8.88075e-19)
(6.93853 0.928431 5.71079e-21)
(4.36616 -0.157135 0)
(7.26112 -4.89789 8.04974e-19)
(5.87817 2.74233 0)
(5.8088 2.72906 2.29355e-18)
(6.70758 -4.75802 -1.63506e-19)
(4.62872 0.244546 1.54394e-18)
(8.21488 0.99764 0)
(1.70495 -1.7499 0)
(6.51834 1.66249 0)
(6.43944 1.7608 0)
(6.20506 -1.7483 5.59639e-19)
(6.63572 1.03689 2.47966e-20)
(6.56547 1.03046 -9.17321e-21)
(6.59425 2.57625 2.78987e-20)
(6.55823 2.60124 -9.88138e-21)
(6.77498 0.557949 0)
(6.20126 2.41747 -2.4715e-18)
(8.90282 0.596509 0)
(8.78636 0.587209 1.54364e-18)
(6.14924 0.908344 0)
(6.17059 2.91984 0)
(6.20396 3.05439 2.75936e-20)
(6.92353 -1.07464 -1.51537e-20)
(6.6513 3.03637 -1.06631e-19)
(6.63077 3.1746 0)
(6.57546 -1.42619 -2.25972e-19)
(7.92565 -0.918405 2.42027e-19)
(8.04543 -0.81186 6.40771e-19)
(6.04737 2.18833 -1.89158e-19)
(6.0995 2.1728 0)
(7.55637 0.744601 -8.48779e-21)
(8.46995 0.811175 -3.57719e-20)
(8.47506 0.874268 3.32426e-20)
(6.43264 -1.68149 -3.32183e-19)
(6.34461 -1.78374 0)
(2.10615 -1.1297 0)
(5.71916 -4.44579 -1.18306e-18)
(5.60869 -4.41247 1.37499e-18)
(6.96045 -1.82488 -4.08782e-20)
(2.89625 0.513227 0)
(6.88394 2.76433 -7.79993e-21)
(6.84961 2.77649 1.06394e-19)
(5.28161 -4.20964 0)
(4.62747 -3.68754 -3.30751e-18)
(6.54631 -1.66761 -2.50676e-20)
(6.57457 -1.59064 9.81142e-20)
(6.46618 -1.65004 2.91009e-19)
(4.13924 0.542613 2.49804e-18)
(4.07738 0.65335 1.41987e-18)
(6.7503 -4.62765 1.93387e-18)
(7.6339 0.437675 2.67277e-19)
(6.80285 0.482613 -4.81297e-21)
(6.62516 -4.69347 0)
(6.60203 -4.67981 0)
(6.66133 -4.68689 0)
(3.01569 -3.07628 1.15906e-18)
(3.05178 -3.12761 3.27724e-18)
(5.02742 -1.1964 0)
(6.53922 -1.21411 -9.09402e-20)
(9.0025 -0.0353591 -2.66212e-19)
(9.03338 -0.0701712 0)
(6.05076 -1.06304 -4.24038e-19)
(6.06469 -1.13258 2.74358e-19)
(7.0102 -4.69187 -2.22558e-18)
(6.9759 -4.67432 1.97933e-18)
(7.02979 -4.71892 0)
(4.35598 1.03201 9.72625e-19)
(4.34691 1.14108 7.37955e-19)
(2.18566 -1.80456 0)
(6.79981 -4.71253 -1.33824e-18)
(6.8587 3.10577 -4.93117e-20)
(6.01086 2.29233 3.8416e-18)
(5.7937 -4.59332 1.09765e-18)
(5.7967 -4.62126 0)
(2.64541 -3.30207 -8.14879e-18)
(8.31739 -0.618447 9.23972e-19)
(8.01806 0.173158 6.68245e-19)
(8.14541 0.146296 2.01081e-19)
(6.33438 0.879045 -2.65707e-19)
(2.59044 -0.110588 -6.4078e-18)
(6.37499 3.08171 0)
(6.46159 3.08126 0)
(6.67088 -0.706912 -1.15062e-17)
(6.72598 -0.800559 0)
(7.04946 -3.53708 0)
(8.33892 -0.314996 -8.79934e-19)
(8.31328 -0.245671 1.31219e-18)
(8.07144 -1.05638 0)
(8.00293 -1.02906 -3.14737e-19)