/*--------------------------------*- C++ -*----------------------------------*\
  =========                 |
  \\      /  F ield         | OpenFOAM: The Open Source CFD Toolbox
   \\    /   O peration     | Website:  https://openfoam.org
    \\  /    A nd           | Version:  6
     \\/     M anipulation  |
\*---------------------------------------------------------------------------*/
FoamFile
{
    version     2.0;
    format      ascii;
    class       volScalarField;
    location    "1785";
    object      nuTilda;
}
// * * * * * * * * * * * * * * * * * * * * * * * * * * * * * * * * * * * * * //

dimensions      [0 2 -1 0 0 0 0];

internalField   nonuniform List<scalar> 
30718
(
0.358583
0.292652
0.241287
0.343485
0.259103
0.141876
0.14156
0.372835
0.364814
0.246286
0.374693
0.321897
0.347899
0.229596
0.321454
0.238983
0.23383
0.148768
0.169382
0.165216
0.142547
0.306087
0.229208
0.269829
0.238741
0.142339
0.200343
0.13978
0.148658
0.15425
0.287787
0.16145
0.184174
0.194887
0.191661
0.233468
0.182757
0.192559
0.144757
0.228716
0.256526
0.154747
0.119765
0.169481
0.199535
0.189622
0.252071
0.224655
0.202635
0.295001
0.178509
0.221407
0.247341
0.35747
0.340428
0.346439
0.205179
0.194694
0.235788
0.326229
0.314369
0.321272
0.219698
0.174406
0.168676
0.234807
0.141292
0.128569
0.216077
0.233922
0.296055
0.250064
0.202891
0.139224
0.139972
0.322031
0.245127
0.352742
0.110065
0.144393
0.384994
0.154025
0.215934
0.144998
0.109198
0.335708
0.250807
0.251894
0.245152
0.125778
0.156926
0.149412
0.138818
0.139015
0.110376
0.120452
0.13764
0.137436
0.183822
0.13932
0.139112
0.153203
0.18396
0.148536
0.139487
0.139662
0.0665024
0.000846472
0.138933
0.150159
0.137699
0.128905
0.135506
0.0739483
0.18434
0.0791779
0.139055
0.138818
0.000900498
0.13864
0.101024
0.144094
0.0465999
0.141258
0.143748
0.139276
0.139051
0.20445
0.221123
0.169515
0.188456
0.206284
0.0721783
0.137593
0.138812
0.138195
0.139294
0.147011
0.139493
0.156947
0.174847
0.146822
0.185643
0.141722
0.139878
0.144055
0.127596
0.153009
0.137135
0.182252
0.1544
0.139666
0.151073
0.145566
0.169203
0.151391
0.13932
0.138742
0.148249
0.180954
0.124598
0.174953
0.149605
0.199645
0.13836
0.139249
0.138708
0.139165
0.33735
0.289422
0.266533
0.370849
0.138044
0.155092
0.18197
0.159951
0.181784
0.138484
0.141039
0.142887
0.13774
0.129484
0.15988
0.312505
0.261842
0.249084
0.343007
0.168005
0.194029
0.194025
0.174271
0.0870753
0.103091
0.207257
0.13905
0.13914
0.139234
0.177679
0.180834
0.233002
0.31296
0.276461
0.25139
0.209709
0.289985
0.24954
0.235536
0.143737
0.178435
0.172441
0.166019
0.134929
0.145453
0.145129
0.135151
0.13654
0.140941
0.139244
0.138449
0.147527
0.139582
0.139247
0.156462
0.143752
0.152951
0.167596
0.153473
0.132283
0.151883
0.153781
0.115556
0.119826
0.138988
0.139231
0.147684
0.0909858
0.212311
0.203016
0.147341
0.162991
0.179237
0.19013
0.171086
0.154898
0.127409
0.144165
0.158279
0.149222
0.14246
0.13969
0.176127
0.171831
0.148533
0.175651
0.138105
0.139308
0.141715
0.184754
0.11928
0.109791
0.139034
0.139354
0.139313
0.139472
0.139449
0.164126
0.181629
0.155641
0.140051
0.136385
0.110607
0.114235
0.16128
0.135401
0.151474
0.229509
0.209729
0.273319
0.280673
0.140296
0.147258
0.148633
0.114208
0.0312117
0.0281137
0.112016
0.0251387
0.0753406
0.0664761
0.121919
0.117695
0.130528
0.0750822
0.0536266
0.0730532
0.0711779
0.119123
0.138461
0.126883
0.138201
0.0577651
0.12499
0.0607815
0.137465
0.137232
0.0684666
0.120642
0.127403
0.103126
0.0931238
0.0752409
0.118264
0.0726033
0.0714015
0.0647007
0.112872
0.100447
0.0243192
0.0226529
0.0684145
0.138753
0.103869
0.123886
0.0762556
0.0747535
0.074111
0.139431
0.139224
0.139142
0.0444354
0.120384
0.122849
0.073961
0.0712106
0.122145
0.121796
0.123345
0.0533427
0.0579952
0.104893
0.000818116
0.0011923
0.107811
0.0562464
0.0502889
0.134283
0.136706
0.0582589
0.109374
0.110061
0.0199206
0.02386
0.0754409
0.0778496
0.119546
0.063822
0.135166
0.0854927
0.0374857
0.0420821
0.0387013
0.0599065
0.0563494
0.122051
0.125752
0.114024
0.125588
0.126274
0.124626
0.139585
0.0372944
0.039957
0.046557
0.0440121
0.0425671
0.139634
0.139522
0.1398
0.0715464
0.0454464
0.0460882
0.039888
0.11968
0.119356
0.0630793
0.0650854
0.0333677
0.0357131
0.13818
0.137186
0.137944
0.0627292
0.0580952
0.119284
0.131224
0.129132
0.134169
0.112056
0.112292
0.137453
0.0752186
0.0652411
0.0707225
0.0687883
0.126425
0.136777
0.138794
0.0263891
0.120477
0.0951508
0.0612351
0.139977
0.141803
0.137319
0.0657047
0.0654928
0.0769759
0.112729
0.118752
0.0685464
0.0598626
0.059971
0.0667049
0.138309
0.13786
0.0522486
0.124478
0.128402
0.136748
0.0488694
0.0561254
0.0493266
0.0543249
0.0695099
0.0735995
0.0745148
0.0735859
0.0763993
0.0492073
0.0553128
0.0445385
0.0674198
0.0692569
0.103125
0.105821
0.0961771
0.101766
0.133156
0.121596
0.120557
0.12183
0.170465
0.154061
0.0778598
0.0776713
0.0783188
0.0459153
0.0535301
0.048882
0.0501279
0.0267442
0.0730623
0.144222
0.155108
0.0574272
0.137778
0.155315
0.145365
0.147838
0.126738
0.115104
0.101561
0.0227934
0.0217729
0.0209481
0.125921
0.123996
0.0717789
0.0738814
0.138462
0.138305
0.0358831
0.0309425
0.0312579
0.0346175
0.0795232
0.168144
0.150884
0.135101
0.000920944
0.138592
0.138361
0.142993
0.111871
0.14153
0.145264
0.137647
0.136843
0.0981815
0.0927968
0.132859
0.130198
0.135366
0.10896
0.139739
0.139685
0.133426
0.134403
0.139174
0.139009
0.133289
0.131615
0.137946
0.137801
0.138597
0.137272
0.139456
0.126113
0.127653
0.136154
0.138855
0.137727
0.138822
0.107923
0.105296
0.133097
0.129356
0.139622
0.139642
0.161064
0.149537
0.114082
0.126366
0.11648
0.0794357
0.0850275
0.153224
0.146346
0.137117
0.139597
0.00114907
0.129985
0.138912
0.0913381
0.0981219
0.13954
0.10177
0.0958915
0.137147
0.138573
0.127266
0.128345
0.0992617
0.101451
0.0972684
0.138682
0.138813
0.138024
0.137901
0.137829
0.133516
0.147924
0.137062
0.13903
0.138359
0.138755
0.112643
0.116555
0.112058
0.0290819
0.132363
0.136442
0.0279098
0.130259
0.137758
0.13742
0.138697
0.0949422
0.106411
0.0982855
0.137507
0.137046
0.137022
0.0971511
0.000895887
0.00102257
0.137503
0.138697
0.137506
0.102174
0.135175
0.139614
0.139495
0.0595893
0.0637314
0.0595874
0.171772
0.114861
0.100297
0.109683
0.120018
0.138954
0.180456
0.189214
0.0320556
0.17033
0.151014
0.142951
0.16784
0.0324464
0.0358178
0.0318291
0.129837
0.13995
0.139615
0.039758
0.0404843
0.0359414
0.0368725
0.138175
0.140286
0.131459
0.134692
0.139035
0.0470618
0.0543193
0.185304
0.133358
0.138744
0.139168
0.186131
0.264883
0.220497
0.0679377
0.0679705
0.138939
0.140189
0.0676436
0.0613813
0.167575
0.180751
0.138512
0.138577
0.138322
0.131336
0.1319
0.138536
0.138854
0.138556
0.138904
0.0631434
0.0620196
0.232617
0.187204
0.209604
0.016665
0.035252
0.0604121
0.0987402
0.040125
0.0235771
0.0974635
0.0512425
0.100307
0.0714994
0.0698947
0.0700804
0.0899395
0.0424008
0.0382513
0.105218
0.0990066
0.136792
0.105923
0.0473284
0.0843234
0.077948
0.136394
0.0762103
0.0317598
0.0840301
0.0843629
0.118088
0.11117
0.111355
0.0777998
0.0276315
0.0844059
0.0563608
0.117426
0.11158
0.10309
0.0445284
0.0779351
0.0994613
0.0483441
0.0529935
0.0032029
0.0562438
0.0591955
0.0866742
0.102124
0.00288949
0.0959269
0.127483
0.0976278
0.0993657
0.0310298
0.050905
0.0785682
0.0783214
0.0833363
0.0868786
0.105946
0.066683
0.0021605
0.110083
0.136039
0.103822
0.112461
0.104807
0.00234829
0.032067
0.0874355
0.0558585
0.108017
0.0711052
0.113004
0.1069
0.0475546
0.0437454
0.101276
0.0952935
0.0973271
0.107437
0.00198055
0.0945667
0.0907788
0.0383947
0.0487591
0.082753
0.126874
0.112095
0.101123
0.0580437
0.0773469
0.0712986
0.0853828
0.0376044
0.0323504
0.0372678
0.10023
0.115021
0.109493
0.0824508
0.0821372
0.0417292
0.0414345
0.0341914
0.0368319
0.104479
0.0730391
0.07307
0.054742
0.0517997
0.0718241
0.0992567
0.091837
0.10625
0.101465
0.105377
0.0917763
0.117506
0.117912
0.108578
0.061872
0.0650976
0.0281123
0.0816442
0.083085
0.0843938
0.0509825
0.110561
0.104785
0.107701
0.0284292
0.0933729
0.10954
0.114245
0.0562033
0.124549
0.10577
0.107015
0.0767308
0.0752771
0.0777385
0.0290353
0.0859177
0.0541931
0.0553938
0.108769
0.114043
0.0347391
0.115349
0.046101
0.0490176
0.0648869
0.097797
0.113284
0.114396
0.0658769
0.0661015
0.0575677
0.0979651
0.0559798
0.10479
0.110651
0.11163
0.136331
0.134135
0.110856
0.0800379
0.089756
0.037551
0.0378227
0.112671
0.0348171
0.0297552
0.0398937
0.0403517
0.0387497
0.0749153
0.109102
0.1212
0.115806
0.0659118
0.0680552
0.108539
0.106979
0.109756
0.114101
0.112402
0.101491
0.103248
0.10277
0.101841
0.0864188
0.0402898
0.0388073
0.0394973
0.0395667
0.0972378
0.0846378
0.0970889
0.0753868
0.0789669
0.0776436
0.0766256
0.0811263
0.113611
0.111339
0.112748
0.0733458
0.130294
0.129593
0.0830368
0.0914164
0.0878072
0.0792553
0.0799851
0.078263
0.0743643
0.0770653
0.113751
0.112489
0.112936
0.0340935
0.0366656
0.0817723
0.0349793
0.043949
0.0841619
0.0840278
0.0293302
0.0627248
0.0642709
0.0974076
0.0653465
0.0770619
0.0782766
0.0640238
0.0411209
0.102473
0.105727
0.103146
0.102352
0.00119997
0.081335
0.11642
0.112937
0.113605
0.0645551
0.0386988
0.122134
0.120755
0.0628578
0.0953457
0.0968721
0.0417099
0.0814454
0.0796018
0.0794282
0.0788094
0.0802053
0.0824203
0.0819908
0.0821115
0.0713445
0.0735255
0.0714133
0.0741126
0.0576674
0.0591556
0.0768308
0.0745921
0.0758879
0.134213
0.0618034
0.0646826
0.0655454
0.104547
0.103253
0.105663
0.0803539
0.0836658
0.0840948
0.0475666
0.0479231
0.0252787
0.0319083
0.029905
0.115088
0.109266
0.109147
0.122448
0.103434
0.10382
0.107853
0.107613
0.108204
0.113962
0.113885
0.0434347
0.110371
0.107834
0.0750144
0.0734996
0.074655
0.0636264
0.0648126
0.0617686
0.0721919
0.0713129
0.113337
0.11364
0.0698329
0.0676461
0.111318
0.112463
0.0608581
0.0571237
0.0560885
0.0589368
0.0581557
0.106383
0.0703926
0.109946
0.110699
0.110251
0.110433
0.130383
0.102923
0.0394626
0.0596312
0.0601635
0.11237
0.111573
0.112498
0.111895
0.113124
0.112887
0.111956
0.106051
0.108051
0.106922
0.107176
0.0808245
0.0818577
0.116814
0.117265
0.116304
0.102219
0.110093
0.111613
0.111555
0.111149
0.111951
0.109676
0.109213
0.114895
0.109232
0.0464188
0.0442485
0.107151
0.108789
0.107927
0.110187
0.115632
0.0865319
0.0345132
0.0546522
0.0565209
0.0821819
0.0820063
0.0716192
0.0720147
0.0691699
0.0862081
0.125829
0.126985
0.125966
0.0522658
0.0572311
0.0547372
0.0554148
0.112806
0.111776
0.111472
0.112908
0.114559
0.113801
0.116034
0.107987
0.0212555
0.110528
0.0421234
0.0418127
0.0411593
0.0429153
0.0698843
0.0716727
0.0699325
0.0722549
0.0734024
0.074706
0.115341
0.116528
0.116483
0.115496
0.0974146
0.0998143
0.0997792
0.0987249
0.0566269
0.0578138
0.0555782
0.10652
0.0761209
0.0761433
0.0748722
0.0325339
0.0337277
0.0317706
0.113089
0.0493465
0.11634
0.11702
0.11604
0.0591619
0.0570702
0.0545528
0.0562523
0.0594317
0.0568007
0.115255
0.114588
0.115119
0.114591
0.107809
0.109183
0.106943
0.0950031
0.0933965
0.0958621
0.0375803
0.024927
0.0264135
0.0427586
0.0444702
0.043461
0.0435885
0.11404
0.113885
0.114378
0.113552
0.104073
0.102154
0.0548105
0.0518051
0.0540364
0.0955985
0.105149
0.109206
0.0636018
0.0599199
0.0736147
0.0785787
0.076318
0.116078
0.117073
0.1152
0.0387517
0.040166
0.0381237
0.11558
0.116425
0.116153
0.115604
0.109189
0.128342
0.127653
0.111097
0.112816
0.110341
0.113787
0.11348
0.120267
0.113473
0.113021
0.11295
0.113495
0.108228
0.109517
0.109163
0.108462
0.0792997
0.0805843
0.0801057
0.0797133
0.0586374
0.0622017
0.0607198
0.0597293
0.118092
0.118599
0.118911
0.117952
0.114139
0.114405
0.114734
0.113839
0.114823
0.115211
0.115087
0.103161
0.102361
0.0503142
0.114479
0.12526
0.112717
0.110383
0.0672664
0.0797855
0.0810673
0.0805318
0.0803167
0.135769
0.135497
0.0586371
0.0554498
0.0579856
0.0551253
0.078903
0.0792998
0.0785549
0.0797888
0.0885739
0.0810028
0.0823848
0.0884706
0.0775002
0.0766621
0.0768043
0.0767908
0.05985
0.0617773
0.061704
0.0592863
0.0307127
0.0378088
0.0377166
0.0663235
0.110306
0.10742
0.0783986
0.0790999
0.0781784
0.0781434
0.0794009
0.12268
0.123694
0.0946926
0.0967929
0.0710654
0.0739159
0.121146
0.122089
0.12221
0.121167
0.112056
0.11191
0.111741
0.0469764
0.0449386
0.0452341
0.0462766
0.118102
0.118836
0.118875
0.11817
0.0745111
0.0744604
0.0738584
0.0751211
0.113421
0.116293
0.115279
0.107078
0.0527993
0.053181
0.0542346
0.0517281
0.0809531
0.11153
0.110211
0.111111
0.110493
0.0153458
0.110934
0.124842
0.124323
0.124128
0.125193
0.116339
0.116991
0.116785
0.11642
0.0929537
0.0918693
0.0390809
0.0394399
0.0399679
0.0385285
0.101788
0.0991928
0.100062
0.11264
0.113281
0.113459
0.112339
0.10776
0.11458
0.114297
0.0738903
0.070504
0.0715236
0.0727393
0.117162
0.118338
0.117018
0.124188
0.123806
0.0481743
0.050697
0.0484859
0.0499149
0.103004
0.10432
0.0858843
0.0773484
0.0779162
0.0766288
0.0787789
0.113425
0.115039
0.113632
0.0686325
0.0704992
0.069655
0.0694498
0.0794095
0.0776203
0.078137
0.0787271
0.082466
0.0817268
0.0822815
0.0820264
0.0610834
0.0600888
0.0614873
0.0599568
0.116902
0.117151
0.101869
0.100421
0.102302
0.125976
0.118323
0.121433
0.124738
0.114598
0.114615
0.114858
0.114421
0.113493
0.114241
0.114096
0.113557
0.114256
0.114319
0.114099
0.114519
0.0614483
0.0608192
0.0634909
0.0592204
0.113617
0.113295
0.110439
0.108322
0.108682
0.110953
0.0981485
0.0997512
0.0978833
0.0816528
0.0818059
0.0815065
0.0819013
0.0806805
0.0806812
0.0810221
0.0803586
0.0410923
0.0401441
0.0404863
0.0407995
0.0723205
0.0721239
0.0730643
0.071342
0.0794802
0.0811773
0.0803101
0.0600064
0.138864
0.101796
0.11536
0.115275
0.115043
0.115687
0.0885621
0.0811675
0.0806849
0.0817449
0.105181
0.105772
0.106434
0.104602
0.0812654
0.0811491
0.0807997
0.0816039
0.117852
0.117261
0.117804
0.117183
0.114074
0.113688
0.113951
0.113796
0.115032
0.116246
0.115874
0.115402
0.103924
0.0645978
0.0675874
0.0313698
0.0776198
0.0412494
0.0422321
0.0423203
0.0546578
0.0516387
0.109149
0.107412
0.108498
0.107926
0.0992793
0.105268
0.102471
0.102235
0.0787876
0.0801952
0.079348
0.0795687
0.107462
0.106181
0.106075
0.107725
0.0766175
0.075521
0.0775578
0.076948
0.0757704
0.0797382
0.0794468
0.0792655
0.0800385
0.0769183
0.0783821
0.0778776
0.0772299
0.0675558
0.0634032
0.0646138
0.0990209
0.101614
0.0981636
0.0705466
0.068686
0.0682322
0.071609
0.0221221
0.0259015
0.0305552
0.0279961
0.028166
0.049157
0.050192
0.112158
0.112454
0.112368
0.112194
0.0795805
0.0789629
0.0792484
0.0792042
0.104787
0.103268
0.103895
0.104201
0.0545362
0.0526097
0.0534007
0.126096
0.122641
0.124091
0.0567919
0.0566838
0.0555368
0.0580255
0.125466
0.124442
0.124558
0.103458
0.102815
0.0610497
0.0635723
0.0644278
0.05937
0.12259
0.125581
0.110418
0.0459955
0.047121
0.111869
0.111356
0.111088
0.112256
0.115481
0.115989
0.115267
0.116083
0.023729
0.0280277
0.0703455
0.0721023
0.10624
0.105974
0.10689
0.105367
0.0213899
0.0409929
0.124945
0.123244
0.121054
0.127193
0.114084
0.114745
0.114258
0.114534
0.0735838
0.0762761
0.0741574
0.0753135
0.138614
0.105437
0.11263
0.113258
0.113075
0.112719
0.062474
0.0660215
0.0620776
0.0654321
0.100085
0.101002
0.101259
0.099741
0.069834
0.0708161
0.0727143
0.119438
0.119167
0.119893
0.118972
0.106309
0.106262
0.106976
0.105574
0.0802393
0.0639888
0.0650808
0.0624773
0.118781
0.117942
0.117803
0.118819
0.122463
0.123291
0.0479058
0.0427433
0.115466
0.115059
0.115138
0.115329
0.117649
0.116832
0.117568
0.116997
0.116441
0.115502
0.115579
0.116493
0.0669617
0.0675931
0.066233
0.0684924
0.0872846
0.0796385
0.0150992
0.117763
0.117057
0.117969
0.117001
0.075241
0.0364393
0.122982
0.127794
0.124963
0.126479
0.113963
0.113443
0.113173
0.114167
0.0448699
0.0465272
0.0463104
0.045317
0.0508948
0.0492987
0.101153
0.100314
0.0747765
0.11156
0.111216
0.111083
0.111669
0.117561
0.116816
0.117395
0.116848
0.112244
0.111816
0.112057
0.119872
0.118585
0.11878
0.119516
0.0840849
0.0855261
0.082716
0.108213
0.104615
0.107904
0.105231
0.106907
0.128681
0.12812
0.111157
0.123695
0.118801
0.0394868
0.0394903
0.0401204
0.038857
0.0507326
0.0528102
0.052145
0.0514464
0.112705
0.120944
0.120705
0.120424
0.121422
0.0801877
0.081106
0.0805752
0.0806809
0.110709
0.0526489
0.0523674
0.0534984
0.0514437
0.0758601
0.0748982
0.0762323
0.0749644
0.137824
0.139405
0.0627128
0.0673709
0.0641294
0.0660854
0.0648971
0.0449232
0.0459839
0.134837
0.133761
0.13355
0.13443
0.0784482
0.0787909
0.0790327
0.0783744
0.0754146
0.0790073
0.0745647
0.0785456
0.0638755
0.137821
0.137585
0.00140736
0.0661202
0.0701301
0.0669968
0.0718203
0.0742011
0.0725338
0.0743664
0.137118
0.00641646
0.0768446
0.0046217
0.00530261
0.00520737
0.133606
0.00312873
0.13547
0.00108461
0.0109564
0.139288
0.13889
0.00276305
0.116967
0.0934357
0.0895957
0.075235
0.133355
0.0216657
0.0206864
0.00117905
0.0184183
0.0255346
0.070994
0.0538541
0.129637
0.092181
0.0686306
0.130762
0.132985
0.136183
0.1234
0.121559
0.0382687
0.0222965
0.0183402
0.105817
0.137589
0.137869
0.119287
0.130772
0.0669163
0.136269
0.0645114
0.00524992
0.0506992
0.0972361
0.100091
0.0961102
0.0903245
0.137099
0.136834
0.0905217
0.0988767
0.113682
0.133305
0.131607
0.126385
0.1167
0.11947
0.124544
0.138201
0.028609
0.0263372
0.0244263
0.136581
0.135396
0.136429
0.106138
0.106791
0.134743
0.104565
0.0948092
0.126768
0.0690482
0.0308792
0.0324574
0.133323
0.132202
0.138048
0.134712
0.108761
0.108536
0.0677266
0.0658979
0.0702227
0.0254614
0.0216515
0.137763
0.137386
0.0810134
0.118108
0.110269
0.109984
0.112469
0.107672
0.107088
0.00177454
0.138751
0.138763
0.13744
0.0673438
0.068531
0.134952
0.0695978
0.135765
0.133405
0.0974035
0.0701958
0.139076
0.132799
0.0694754
0.0577122
0.11207
0.134639
0.108698
0.0619003
0.063722
0.0157931
0.0193044
0.137336
0.137709
0.125265
0.127883
0.11235
0.112409
0.111635
0.098779
0.097467
0.0982597
0.122378
0.055273
0.121517
0.115827
0.135992
0.136369
0.1494
0.0408775
0.111144
0.107648
0.106069
0.11137
0.115155
0.0860809
0.129378
0.102297
0.0938983
0.0900167
0.0628229
0.0586044
0.100204
0.100974
0.117902
0.0010911
0.242551
0.158297
0.182883
0.0173629
0.0777268
0.138238
0.138315
0.118917
0.118738
0.147182
0.139582
0.0655041
0.0661872
0.00661279
0.0758559
0.0744394
0.0555998
0.0523199
0.0453534
0.0137659
0.0287665
0.0324765
0.00427875
0.0994724
0.100602
0.138933
0.130373
0.131148
0.137547
0.135084
0.109405
0.11014
0.110007
0.13236
0.135138
0.109845
0.114677
0.130508
0.137022
0.0719838
0.132432
0.00384866
0.135228
0.0747305
0.124718
0.125746
0.13372
0.0178807
0.0203867
0.0192356
0.133935
0.134825
0.135519
0.133062
0.132185
0.132951
0.039536
0.0385739
0.110967
0.111042
0.128407
0.127239
0.0692973
0.121389
0.119993
0.119591
0.138507
0.138206
0.138309
0.112283
0.112085
0.111961
0.138121
0.137926
0.0976073
0.128918
0.128445
0.127033
0.127659
0.128618
0.124392
0.066767
0.0162852
0.000987343
0.076265
0.0576596
0.121422
0.177989
0.15323
0.242169
0.298343
0.0718698
0.0711051
0.0247021
0.0751674
0.0717964
0.0491239
0.0468913
0.0482033
0.209398
0.269965
0.204437
0.0720968
0.0729318
0.136128
0.135852
0.135262
0.13556
0.00894935
0.13752
0.137309
0.136973
0.0529207
0.0466405
0.0197926
0.1483
0.14948
0.137842
0.136451
0.138116
0.138054
0.138215
0.139236
0.0235872
0.0701247
0.105956
0.103246
0.109927
0.108614
0.130043
0.138595
0.139017
0.148141
0.142717
0.116359
0.116914
0.128839
0.129591
0.0288319
0.0258022
0.0379232
0.0373909
0.0710554
0.0686991
0.0659527
0.101737
0.133603
0.133931
0.128152
0.0297287
0.0315227
0.0288793
0.133159
0.11271
0.111389
0.114507
0.114205
0.133848
0.134298
0.0237973
0.0261403
0.0698777
0.0730571
0.131046
0.129163
0.125631
0.11566
0.116978
0.13472
0.0694707
0.0685767
0.106134
0.104718
0.105596
0.105026
0.0179734
0.139517
0.0209294
0.0289142
0.0252044
0.0221474
0.025961
0.0297798
0.0260005
0.0123171
0.130895
0.326033
0.264049
0.22821
0.132992
0.132363
0.0697648
0.0728354
0.134062
0.132779
0.132824
0.132141
0.139496
0.139398
0.139508
0.0415168
0.0422819
0.0440053
0.0467791
0.0393979
0.0281188
0.0327105
0.118814
0.121985
0.116638
0.0737314
0.0727045
0.0723252
0.178629
0.209788
0.0995476
0.0998563
0.100935
0.125082
0.106703
0.106603
0.0169448
0.0152082
0.141496
0.138585
0.122063
0.122531
0.123485
0.146784
0.134122
0.13502
0.138937
0.14081
0.12235
0.118831
0.0692208
0.0702533
0.153977
0.149409
0.111359
0.115871
0.115635
0.138474
0.137839
0.138116
0.1139
0.109427
0.113536
0.128791
0.130118
0.129445
0.130641
0.139275
0.139097
0.0760684
0.0908754
0.089257
0.00387113
0.0726701
0.0698942
0.0708445
0.0707431
0.138773
0.139042
0.111469
0.0331619
0.0389159
0.126795
0.127441
0.00154932
0.0170283
0.0153775
0.0145494
0.0985462
0.09854
0.117893
0.143638
0.11789
0.0436121
0.0435148
0.0448849
0.13811
0.139348
0.139366
0.0908809
0.112816
0.109057
0.135724
0.136403
0.086751
0.0908524
0.139475
0.139656
0.113129
0.131
0.0915236
0.0880576
0.0798075
0.138856
0.138978
0.0498824
0.0790021
0.0683635
0.0705905
0.0699681
0.121031
0.120385
0.131329
0.113078
0.113599
0.113014
0.113259
0.114063
0.114935
0.0368755
0.0397327
0.0677397
0.111619
0.050656
0.0537329
0.0535377
0.110654
0.0651092
0.0363919
0.00726081
0.0626699
0.0738793
0.0434295
0.0708414
0.071625
0.0166603
0.109539
0.0459406
0.0499794
0.097474
0.0977421
0.0321826
0.0872948
0.0514177
0.0453369
0.0399741
0.0844731
0.088666
0.0946623
0.0210198
0.0382039
0.0319385
0.107268
0.0388314
0.0308076
0.109625
0.0832667
0.0185281
0.0150526
0.0789126
0.0649133
0.00824695
0.0830053
0.0820069
0.0307584
0.0720601
0.0820114
0.0852296
0.0449013
0.0552118
0.109757
0.00822492
0.0916822
0.0514326
0.0549184
0.0294959
0.0771366
0.0590635
0.0445799
0.0416908
0.0390998
0.083154
0.083258
0.134852
0.13413
0.0944385
0.0971088
0.132312
0.0850114
0.0260001
0.0302995
0.0296576
0.0407866
0.0874428
0.10111
0.0222111
0.0447325
0.049949
0.0824991
0.0403978
0.0923074
0.0957682
0.0966298
0.0981402
0.0981948
0.0815737
0.0168015
0.0758012
0.10218
0.0663831
0.0825003
0.0442301
0.0862557
0.0587899
0.0556111
0.023539
0.116685
0.0984877
0.0967767
0.0213482
0.0650006
0.0617691
0.0742589
0.000976575
0.104389
0.105731
0.0496484
0.0931359
0.0848157
0.111577
0.0772043
0.110703
0.114146
0.0320167
0.0988765
0.110605
0.0263992
0.0978794
0.073606
0.0772308
0.0778281
0.073432
0.0774478
0.07608
0.0768569
0.0767506
0.0845254
0.118644
0.0341004
0.106259
0.100594
0.020279
0.0206498
0.120325
0.0847751
0.0846905
0.0836138
0.047569
0.051794
0.0500176
0.0493465
0.0228171
0.0687205
0.0692408
0.10496
0.0479629
0.0224527
0.097242
0.0984038
0.0224951
0.022743
0.0625656
0.0730761
0.073756
0.109949
0.110357
0.0624599
0.0946779
0.0924784
0.0390532
0.111164
0.0157034
0.0177451
0.0172953
0.0174273
0.132136
0.0167905
0.0652765
0.0632229
0.0170105
0.0189466
0.062202
0.103673
0.103055
0.106733
0.0806297
0.00106676
0.0886108
0.0879524
0.0437269
0.0872986
0.0658315
0.0221922
0.0826392
0.0825638
0.0834095
0.0464769
0.0478515
0.0472712
0.0238307
0.0241091
0.0669034
0.0695005
0.0604683
0.12581
0.1264
0.124562
0.101377
0.0557267
0.0567944
0.0148536
0.0293045
0.0371325
0.0684363
0.070229
0.0867985
0.135581
0.136425
0.0534761
0.0519809
0.0524499
0.0531467
0.083617
0.0832458
0.031461
0.0288905
0.0891097
0.0977497
0.000969093
0.0967587
0.0746659
0.0746272
0.0778642
0.0888031
0.0828599
0.00235451
0.015936
0.0801162
0.0777231
0.00240875
0.10415
0.104343
0.102935
0.128787
0.0581108
0.0827593
0.0832584
0.0831843
0.0827548
0.0926668
0.0152149
0.090883
0.0983114
0.0695946
0.0725753
0.0162748
0.00218247
0.0990417
0.0915204
0.109904
0.0978225
0.0976385
0.0988526
0.0441166
0.103922
0.10422
0.104846
0.103299
0.0416279
0.0830693
0.00241163
0.00230062
0.0946007
0.0936825
0.0948407
0.0949159
0.0964304
0.0937353
0.0250152
0.0242878
0.0841488
0.083917
0.0843154
0.00250692
0.120533
0.0625872
0.0624882
0.0634684
0.0452357
0.109044
0.0837866
0.0835257
0.0835505
0.0837974
0.00216857
0.00243083
0.00229214
0.0834695
0.00247216
0.00248599
0.104089
0.00215085
0.0983539
0.10474
0.103073
0.102758
0.104851
0.00230195
0.0734902
0.0746557
0.00205068
0.0512505
0.0528473
0.0778795
0.0795601
0.0335643
0.0571503
0.0616463
0.0584481
0.0612966
0.109929
0.0825015
0.0827577
0.00210601
0.0756985
0.0766812
0.0756356
0.0369973
0.0436563
0.0399647
0.0408295
0.0295628
0.0023515
0.0307461
0.0293181
0.0299929
0.0301053
0.0337041
0.034302
0.0325626
0.0276528
0.0216027
0.0754669
0.00230064
0.0848324
0.0848963
0.084903
0.0741818
0.0371418
0.0359736
0.0370674
0.10771
0.0211933
0.112879
0.11281
0.113066
0.112605
0.100338
0.100499
0.0192728
0.07868
0.0766196
0.0779639
0.0813509
0.0686278
0.0680179
0.00236587
0.0848476
0.0950198
0.0932162
0.00230544
0.00256477
0.0760953
0.0901037
0.0288831
0.0298846
0.0278717
0.0768039
0.07767
0.0423442
0.0834231
0.083786
0.0835316
0.0570009
0.0604703
0.0348549
0.0337792
0.00242232
0.0954286
0.092967
0.0785008
0.098803
0.0980844
0.0974525
0.0995316
0.106682
0.107434
0.0765172
0.0758383
0.0752499
0.0769762
0.0922509
0.09026
0.091381
0.091173
0.113196
0.113141
0.0948079
0.0962452
0.0935171
0.108972
0.110056
0.11067
0.108577
0.110146
0.0606708
0.0355194
0.0396238
0.0394402
0.112274
0.112158
0.112435
0.11201
0.0952644
0.111035
0.105923
0.105057
0.106411
0.135095
0.13699
0.0578116
0.0655206
0.0612872
0.0407471
0.0396136
0.0401316
0.0402184
0.0961988
0.0938728
0.0806831
0.0798906
0.0809131
0.0855038
0.0904184
0.0891578
0.105494
0.106698
0.106733
0.105632
0.0205244
0.0785263
0.0795032
0.0795217
0.0786303
0.0461905
0.0453292
0.0537323
0.0705131
0.0703206
0.0714821
0.0691729
0.0872418
0.0875575
0.0842917
0.0434574
0.0434161
0.0425675
0.044357
0.0528242
0.13555
0.136256
0.135992
0.135831
0.0692876
0.0685259
0.0803235
0.0828452
0.0825574
0.107091
0.106342
0.106141
0.107199
0.0675097
0.0697829
0.0669015
0.0697517
0.111592
0.0918932
0.0919622
0.0929158
0.0744446
0.0824269
0.0816626
0.0822784
0.0816988
0.0813006
0.0820461
0.0817567
0.0816315
0.0619848
0.0653271
0.0654523
0.0626061
0.0833944
0.0831298
0.0833317
0.0831194
0.0749141
0.11131
0.1104
0.111195
0.110417
0.0999814
0.111487
0.108391
0.0831238
0.0828727
0.0834127
0.0848832
0.0847919
0.0348652
0.0362238
0.0804432
0.0810502
0.0798685
0.0151645
0.0726884
0.106115
0.106698
0.136672
0.136862
0.136935
0.136605
0.104085
0.103267
0.103582
0.103758
0.0715249
0.0690108
0.0718859
0.0682567
0.0751257
0.119693
0.118425
0.0544008
0.0537157
0.0708743
0.0721182
0.0724104
0.0703292
0.0630369
0.062073
0.106644
0.107595
0.107629
0.106679
0.080285
0.0812337
0.0810644
0.0803001
0.0332525
0.0325912
0.0325366
0.0332189
0.0144819
0.0837224
0.0833475
0.0839644
0.0976961
0.0747347
0.0917195
0.0827948
0.0651575
0.0617324
0.0664354
0.0943502
0.083904
0.0841369
0.0838628
0.0841388
0.0671315
0.0631163
0.0663821
0.0646559
0.0948764
0.0967087
0.0964816
0.0952353
0.0655054
0.0643839
0.0669438
0.0947511
0.0953102
0.0961491
0.0938436
0.0382484
0.0402925
0.0323099
0.0831541
0.0824429
0.0827917
0.102551
0.032939
0.0307176
0.0320318
0.128812
0.129456
0.0783194
0.0805111
0.0665478
0.0661566
0.0649103
0.0677035
0.0896394
0.0883453
0.0901997
0.087547
0.0948684
0.0951292
0.0944391
0.0955191
0.0344607
0.0856334
0.0851297
0.084465
0.0864065
0.110059
0.109197
0.110067
0.110857
0.088043
0.109134
0.110003
0.109961
0.109237
0.0740069
0.0756841
0.0739252
0.0754466
0.073018
0.0708628
0.0706069
0.0727819
0.0367333
0.101784
0.100893
0.0821101
0.0828508
0.0825392
0.0226523
0.0235115
0.0745409
0.0744044
0.0736774
0.0752184
0.00220893
0.096987
0.019074
0.0992839
0.099984
0.0998725
0.099427
0.0762119
0.07761
0.0774523
0.0761394
0.00228
0.00213435
0.00224413
0.0822593
0.123427
0.121761
0.122289
0.122715
0.0536261
0.111984
0.111769
0.111971
0.111789
0.109568
0.112263
0.111139
0.110552
0.00699697
0.0756361
0.076674
0.0768249
0.0753167
0.0628246
0.0491271
0.0543963
0.104888
0.10525
0.103788
0.0463437
0.0445916
0.12191
0.117329
0.0723977
0.0733028
0.0813442
0.0561371
0.10652
0.105756
0.105157
0.107089
0.0845566
0.0844561
0.10802
0.0831339
0.0852956
0.0819507
0.0806595
0.0803301
0.00197221
0.0845141
0.0844238
0.0845815
0.104327
0.0667444
0.0749792
0.105205
0.104679
0.105497
0.104302
0.0651896
0.0611627
0.0643832
0.0627756
0.0822365
0.0827436
0.0825508
0.0824197
0.110101
0.0528157
0.0490016
0.043953
0.0466531
0.0457517
0.0824459
0.0807313
0.0677074
0.0470195
0.0475477
0.0329408
0.0313999
0.0323414
0.0321354
0.0226978
0.0508037
0.0491388
0.0500456
0.0497507
0.104554
0.105347
0.110282
0.111307
0.110082
0.111344
0.104656
0.105645
0.108302
0.0843059
0.0929107
0.094581
0.0936659
0.0938603
0.0463896
0.113352
0.11237
0.112961
0.112747
0.0553094
0.0606041
0.0620767
0.0626865
0.0604471
0.0498371
0.110523
0.110438
0.0770996
0.0786752
0.0773584
0.0781879
0.0474489
0.137502
0.137146
0.0682442
0.0666229
0.0656993
0.0696641
0.0727688
0.0735937
0.0739857
0.0721904
0.129978
0.131265
0.131485
0.130498
0.108029
0.107971
0.028722
0.0882796
0.0358334
0.12031
0.1215
0.107731
0.129684
0.131759
0.131201
0.130458
0.072591
0.0712131
0.0315928
0.0321657
0.0727998
0.0710185
0.0714295
0.0725996
0.0754791
0.0741131
0.0755189
0.0737041
0.0315944
0.0687715
0.0667522
0.121443
0.130915
0.123473
0.132728
0.0742746
0.138903
0.139
0.138798
0.139158
0.0531122
0.090161
0.0753109
0.0748125
0.0756709
0.0744488
0.13378
0.134053
0.134155
0.133734
0.0822854
0.0900743
0.0449026
0.0433583
0.0441096
0.0441055
0.0120397
0.0741502
0.0716908
0.0721756
0.0733904
0.075988
0.0753218
0.0544775
0.0575069
0.0591144
0.0572732
0.0578175
0.0584524
0.0911538
0.0907111
0.0907226
0.118012
0.117617
0.117486
0.118216
0.109919
0.108769
0.108996
0.109818
0.134277
0.134419
0.134599
0.134118
0.135531
0.1364
0.0828849
0.0830571
0.0827447
0.0831792
0.098883
0.098553
0.0978944
0.0994526
0.10912
0.108468
0.03122
0.110819
0.110946
0.110749
0.101551
0.101105
0.102222
0.10051
0.0462039
0.0477519
0.0474651
0.0467116
0.0694887
0.045553
0.0544051
0.0528184
0.0792738
0.0931047
0.107331
0.0841479
0.0832542
0.107356
0.0858405
0.0875934
0.0868461
0.0952109
0.0961158
0.0935855
0.0928243
0.0967383
0.0964351
0.0945065
0.0881425
0.0936401
0.0467311
0.0401065
0.0754231
0.0733946
0.0718052
0.0754549
0.0733941
0.0717977
0.101202
0.0618264
0.068284
0.0260833
0.0677366
0.0769947
0.075091
0.075551
0.0738358
0.0722003
0.0544631
0.0353658
0.0895557
0.101469
0.0294509
0.0601751
0.0618
0.061446
0.0765872
0.0781722
0.0296436
0.0337569
0.0326247
0.0297461
0.0927752
0.0933317
0.0298388
0.0299322