/*--------------------------------*- C++ -*----------------------------------*\
  =========                 |
  \\      /  F ield         | OpenFOAM: The Open Source CFD Toolbox
   \\    /   O peration     | Website:  https://openfoam.org
    \\  /    A nd           | Version:  6
     \\/     M anipulation  |
\*---------------------------------------------------------------------------*/
FoamFile
{
    version     2.0;
    format      ascii;
    class       volScalarField;
    location    "1785";
    object      p;
}
// * * * * * * * * * * * * * * * * * * * * * * * * * * * * * * * * * * * * * //

dimensions      [0 2 -2 0 0 0 0];

internalField   nonuniform List<scalar> 
30718
(
3.93924
-0.228887
-0.0535315
-6.6519
-1.81036
-0.751443
0.804236
-3.67318
0.209671
-2.78404
-0.813697
-3.95185
-7.64266
-5.12571
-6.09131
-1.82265
-3.36056
1.08608
3.88372
1.67492
2.12876
-0.503665
-5.58465
-3.81872
-3.00997
2.05976
-0.933843
1.02064
-0.372972
-0.441188
-1.19589
-1.44647
-3.43777
-0.738665
-4.83262
6.33492
4.27426
-0.283804
-0.447653
0.802394
4.25369
-2.29289
0.714207
5.19355
0.271853
-2.88421
1.70195
2.85667
3.14079
-0.450442
-4.05184
-4.13702
2.09189
-2.03362
-4.95718
6.95239
-0.454445
-1.506
-0.295376
-3.87975
-7.11321
5.07098
3.55676
-1.85919
0.756617
-5.42252
-2.47691
3.35022
0.832556
3.11903
1.97073
-6.18047
-6.57406
0.937019
0.0933693
8.80765
3.59709
-1.73532
0.297204
11.7385
-0.361002
-2.88641
-3.86037
12.3644
0.805978
2.77955
-4.95796
-1.35805
-4.1043
-0.760088
-4.11114
-3.66893
0.969837
1.11849
17.1723
-0.522848
3.78772
1.61634
-2.68025
0.386488
1.08887
0.0529857
-1.20123
-0.0460772
1.55253
1.43498
24.5502
35.0083
0.647258
-1.53116
-0.78965
-0.398377
-0.250863
22.2998
1.64146
20.0882
0.657241
0.844105
35.4816
1.28952
-0.911603
-1.40292
22.0462
-0.791495
-0.747693
0.252703
0.398095
-0.116554
0.191638
0.210514
-2.41215
-2.47214
23.9663
-0.0739802
0.137889
0.04289
1.90265
2.25531
1.30959
0.0330872
-0.19734
1.9774
2.59444
-3.40017
0.9213
-0.512087
-0.526803
-0.751373
-0.179415
1.55094
1.60485
1.38045
3.39033
3.49384
3.63583
1.95903
1.40389
-5.87873
2.92478
2.18226
0.0157195
2.07264
0.518068
6.48402
-0.16141
-0.12531
-0.119453
0.175964
5.57129
1.55926
1.84477
-2.07634
2.65221
2.58188
0.573313
2.86492
2.12537
-0.127517
-0.400994
-0.169718
0.02062
-0.348261
-1.47229
3.80501
-2.66984
-0.806954
-4.78295
0.118952
0.149018
0.918096
0.388507
19.3153
17.4517
2.86345
0.969824
0.836206
1.06476
-2.79375
-2.41106
0.594901
-0.00249234
0.925773
0.508711
1.47246
-1.20704
0.134113
-0.185993
-0.716232
-3.1569
-0.970266
-1.48516
-0.529215
-3.6868
3.59768
4.95259
4.59833
-4.71921
-5.56119
4.68003
4.15645
0.262485
0.112925
-2.79625
-2.44101
-2.96407
2.28976
3.06358
-5.10204
-0.861379
0.370482
-0.811807
-0.830073
0.476712
0.417867
-2.17957
-0.945224
7.19615
2.87127
2.98442
2.68183
2.33932
3.18432
2.75556
2.49
-0.75798
-0.578109
1.40924
1.61747
-1.24573
-0.974109
1.08192
1.77508
-1.79317
-0.930031
-0.661704
-0.180893
-0.0895208
2.28969
-0.806664
-0.403552
1.37831
1.22426
0.508525
0.520046
0.470409
-1.11626
-4.44837
-0.74942
4.87027
-0.446035
-0.352674
-0.36867
-0.109155
-0.903997
-0.502407
-1.50211
0.976907
-0.882753
-2.48184
-1.41165
1.52223
-2.81433
3.7251
25.2497
25.6637
7.97026
25.7582
-11.9742
-13.3006
12.4161
4.35128
1.06864
-10.8962
26.7117
-8.01615
-8.72118
4.06719
-0.134115
4.39474
1.5
-15.495
4.57187
24.816
2.26388
-2.06538
-14.1191
5.3331
3.69216
11.7783
22.8917
-13.1433
4.01427
20.9327
21.4639
20.4488
7.55103
0.0971725
27.6223
26.8841
-8.80836
0.584405
-3.46562
4.57924
-12.2324
-12.7938
-11.5049
0.897107
0.627143
0.694913
28.5401
4.25891
4.63781
-9.23132
-8.96024
4.91163
5.11523
4.64264
25.9693
25.4106
11.3731
33.1918
32.7619
9.7804
27.9299
29.3164
1.89422
-3.17111
26.8874
0.65616
1.10419
25.7788
20.105
-11.2332
-11.3914
5.26052
-10.3368
-4.2803
17.6721
27.7794
27.4456
27.1249
-11.2804
-11.5987
-3.73473
5.25466
4.03303
4.93882
4.7899
4.90759
1.71003
23.7345
28.3373
27.6424
27.9205
27.6009
0.644952
0.717424
0.885075
-10.0345
28.855
29.4765
29.4568
5.5133
4.29757
19.9502
-7.62212
26.5055
26.0166
-0.394498
-1.57627
-1.46104
-13.9845
-14.9074
4.52778
5.08969
5.09437
4.78478
4.46563
5.30127
-0.884984
25.6138
26.3901
24.5223
25.505
2.81765
2.67953
-0.0351698
29.0771
4.4279
-4.68397
-13.0534
-2.3957
-1.92829
-2.00359
-12.1385
-11.6482
-12.036
3.43128
5.47768
27.3767
28.0368
27.6481
25.9044
3.46733
3.2121
22.2092
5.6142
3.83142
3.66139
28.4202
28.3737
28.4421
27.3054
-11.1617
-11.2021
-9.68448
-10.2166
-10.5465
24.386
24.3645
25.6455
-13.4336
-13.5026
12.08
18.5928
21.0676
19.8033
3.07799
5.04773
5.33102
4.92193
3.36432
3.68686
-11.1085
-12.0836
-11.581
24.4092
23.594
23.8731
22.8278
20.7983
-6.47967
0.531898
0.71936
-9.97312
1.21942
1.37587
1.00459
1.38302
5.04466
-0.680286
-1.03823
26.1247
26.5305
26.107
4.59263
4.63048
-9.47409
-10.6474
2.3741
2.1122
27.1437
27.2853
27.2951
26.3164
22.0591
2.2566
2.79238
-4.70112
33.705
1.23205
1.24967
-1.29861
-1.02007
-1.41507
-1.32824
-1.03897
-2.59765
-0.497253
-0.373938
4.14551
4.23359
5.77283
16.29
1.73834
1.58526
-6.30688
-5.44069
1.28408
1.41041
8.15059
9.03056
3.69595
2.52312
1.0115
4.21243
1.97265
-2.29001
-2.66413
-3.83804
-0.0554002
-0.823863
0.865713
-0.622495
-0.672111
3.24432
3.29645
0.871864
0.737348
2.86604
3.824
-0.489752
-0.292519
-0.430439
23.0286
22.3789
-2.04471
3.89639
5.08337
4.58047
35.4324
-4.6153
0.972882
18.8268
18.1937
1.23389
18.3534
20.6242
4.47549
-0.653654
-3.73362
-3.29263
-0.75867
-0.686195
-0.976807
0.424714
3.19229
3.67294
-0.422719
-0.52344
0.59914
0.283541
0.236284
2.03757
1.98953
1.91497
16.0066
15.6967
16.9369
27.6433
2.36732
-7.31019
27.288
1.53155
4.57949
5.07354
0.31537
-0.857646
-0.900391
-1.29627
3.99675
4.40932
4.80959
-0.984463
38.0977
39.9352
-1.54567
-1.63659
-1.39093
-0.836891
2.6768
0.540921
0.167838
21.7218
22.0818
22.8806
2.89686
-0.444036
-0.2639
-0.47936
-0.213501
0.277381
-1.32597
-0.796585
24.6709
2.89849
2.09895
2.12145
-2.66867
20.2754
21.3514
22.0417
4.49547
1.03814
1.28576
26.0614
24.4758
24.9253
25.238
1.45492
1.36053
-4.14568
-4.1459
-3.59538
25.7767
25.1385
1.53435
3.62087
-0.00297909
-0.0812588
0.229438
0.331482
0.615085
-5.25808
-4.37239
3.12619
2.90154
23.2477
23.4688
3.47144
3.20396
-0.308076
-0.307533
-0.641582
3.46625
3.29174
-0.00179
0.165739
-0.126212
0.0583729
-8.65469
-9.42399
1.03904
1.55498
1.36414
14.6662
-13.0859
-13.8471
-5.08842
-27.7558
32.2502
-6.36647
-14.2002
-4.17922
14.4254
-14.2269
-14.1236
16.2217
-14.0598
-13.4924
10.7163
13.5999
-0.409911
10.6405
-4.5402
-9.43437
-13.8023
-0.133682
-17.0226
15.4082
-14.2611
-14.2342
5.49189
7.97243
8.31614
-14.1679
32.1591
18.4354
-14.084
4.92705
3.97155
1.34919
-17.3284
-14.0748
13.4953
-17.0923
-16.4299
39.5003
-13.5987
-13.7335
-0.68246
-3.63022
33.8014
-5.87987
2.36441
-2.18865
-2.06689
10.658
26.1992
-13.8413
-13.901
-14.0828
17.504
10.8983
-13.8144
22.7614
8.53313
3.20346
-2.66281
5.78414
10.4457
20.7897
-2.0469
-8.53481
4.56865
9.29212
21.9839
1.38749
-7.13016
-6.96534
-6.53905
-4.06952
5.81093
14.4682
-0.486508
12.7182
4.0106
-9.24707
-9.28693
-13.9191
-14.0984
3.61834
2.20604
5.24342
25.2751
-16.5815
-3.7682
-13.2502
-13.9731
30.3903
30.2574
4.47818
3.60932
1.86609
-14.3765
-14.5247
-10.6579
-10.6514
-11.3213
-11.0098
-1.50938
-13.4858
-13.6482
-13.5945
-13.4789
-13.711
3.14441
1.22409
1.3457
-1.0349
0.128733
-6.18786
3.77844
3.88404
-0.0556525
-13.8291
-13.8009
10.6949
19.3283
18.6267
-14.2012
-13.8696
1.16912
11.0259
-0.414688
6.26025
-7.87885
7.78618
7.59618
-3.603
6.16371
10.6226
9.64576
-12.9845
-13.0508
-13.2512
-2.3575
18.0618
-18.6825
-17.7661
-0.012823
6.04419
-13.4819
5.235
-12.5743
-12.7241
-16.6505
11.8257
2.62174
2.79833
27.8584
27.3107
28.8305
14.1533
-9.44285
-1.90151
8.30506
7.22387
2.76246
4.16811
4.62781
-13.0692
-11.0982
-13.187
-12.2725
3.85411
31.6283
32.2075
-12.732
-12.9144
-13.0918
-12.1748
7.5458
8.69334
5.11441
-16.3817
-15.579
1.75731
0.989618
2.12083
7.6864
8.62751
-3.68728
-2.38637
-2.09166
-2.29928
-12.7951
-12.5125
-12.7842
-11.7396
-12.2275
-3.15473
-13.5969
14.1841
21.4613
20.4136
19.6446
19.9735
-13.5551
7.94581
8.931
3.25121
21.7376
1.99164
2.40775
18.9807
-7.82876
-9.25851
-13.509
-13.6595
-13.5383
-13.3792
-13.4658
3.34801
2.46583
2.46386
-12.3017
-11.4756
-14.2959
-14.1081
-12.258
-14.1252
-14.1964
31.8801
-13.9305
-13.9124
14.2075
-11.926
-14.9132
-14.9319
-12.6242
-9.44042
-2.03004
-0.024007
11.3658
11.8325
23.8986
-13.6999
3.8884
7.30477
6.93739
-13.3028
-13.8654
4.58663
4.447
-11.9274
-6.62052
-6.13394
-13.2896
-14.575
-14.906
-14.0057
-14.0146
-13.9896
-14.0932
-14.1263
-13.9782
-14.1617
-13.6532
-14.2877
-14.3452
-13.5464
-13.6002
-13.7752
-13.692
-13.6013
-4.86175
-7.85371
-7.63076
-8.16165
-1.34032
-1.93922
-0.844144
-13.2093
-14.102
-14.1296
-11.3957
-11.7111
-14.1335
30.7811
30.7274
7.32365
8.1538
2.77014
2.8484
11
9.54328
9.381
9.87065
9.67549
2.3339
2.53816
-10.377
7.49687
7.94983
-7.97522
-7.0045
-7.94994
-12.845
-13.1012
-13.0329
-15.6666
-4.49465
6.25277
6.35141
-13.977
-13.8289
2.65092
2.78295
-16.1514
-17.2053
-11.6743
-12.128
-11.7902
-1.00594
-4.87129
0.839696
1.35339
1.25925
1.18743
2.94506
12.3006
30.4585
-12.6724
-12.9464
7.63573
7.76085
7.29727
1.29217
1.96077
2.54204
1.96094
9.5036
8.6211
9.34445
8.82989
-14.0231
-14.0547
4.94837
5.24364
5.10674
-6.0086
1.05847
2.16019
1.92057
1.30441
1.97223
0.984404
1.0968
7.52958
18.2379
-7.21894
-6.78049
-0.308665
9.38789
10.2351
9.36729
6.27385
-10.0021
14.5684
-8.74875
-8.2832
-13.9142
-13.8668
-12.3851
-13.0511
-12.6551
16.7032
4.39758
4.04745
4.17965
-17.7866
-16.7736
-16.8577
-17.6349
1.95678
1.54374
1.88738
2.3013
7.15992
7.40684
6.67688
10.1568
23.407
8.66205
-11.9259
-12.4048
-12.6247
-12.1391
-11.8531
-11.8676
-12.2596
-15.5972
-15.0215
-15.2596
7.0878
6.60955
6.84399
7.17088
21.2891
-4.79835
-4.22151
-5.02156
-13.9793
-13.9369
-13.9595
-0.963209
-13.8276
-13.8516
-13.7253
-12.1617
-13.3368
-13.5091
7.979
-11.7867
6.06442
5.77625
6.15845
28.5515
28.5466
29.4354
-6.25018
-6.24462
-7.18238
6.9917
7.25149
6.43728
7.14094
0.010281
0.731546
-0.311801
15.2346
15.5816
14.886
3.31993
30.9657
30.7167
-8.554
-8.51057
-8.07885
-7.78406
3.14141
3.40271
3.17359
2.53699
11.4637
12.5888
-11.4375
-10.9625
-11.2121
-7.22231
10.653
-3.86152
-10.5442
-10.3934
21.3079
19.1345
20.0214
3.3209
3.56338
2.8247
-9.68372
-10.0218
-11.0458
6.8986
6.59098
6.27026
6.76888
1.1157
4.33594
4.45673
8.38992
8.2254
9.34361
4.41514
3.97089
4.71915
6.44294
6.43759
7.01721
6.38641
10.5426
10.0752
9.34335
9.68413
-13.0684
-13.2978
-13.2103
-13.3005
-9.64317
-9.85342
-9.14709
-9.76306
5.96729
5.60665
5.78373
6.16262
3.14186
3.17706
3.18637
2.55817
3.87101
4.05131
4.58571
-2.21649
-3.08236
-12.8262
3.95567
3.8757
5.99355
1.76225
-7.3713
-14.7421
-14.4146
-14.1873
-14.5069
1.84435
2.18244
-10.8593
-10.3404
-10.6707
-11.0831
-13.7895
-13.3828
-14.0214
-13.8852
23.137
25.2928
25.8238
23.6809
-10.6923
-9.78684
-10.7904
-10.6509
-10.9999
-11.6306
-11.4651
-11.6258
-13.5929
-12.6317
-11.5852
19.3538
1.57307
0.201285
-15.0912
-12.7199
-12.7407
-12.2846
-12.7182
4.73746
4.59739
14.9277
14.2392
-12.7639
-12.9674
4.44844
4.54981
4.53185
4.51809
2.88564
2.35255
2.34688
-10.6833
-10.3537
-10.7407
-10.2823
4.05284
4.43728
4.38082
4.47637
-13.8915
-13.8335
-13.9489
-13.9372
5.6516
3.7402
3.08334
-0.545557
-12.2507
-12.6861
-12.794
-12.855
-14.1519
8.9647
9.75121
8.21446
8.68688
24.4819
7.49161
4.52178
4.63845
4.62259
4.54511
4.42956
4.57638
4.69619
4.20443
16.0997
15.8562
-10.5379
-10.6524
-11.2395
-11.8208
12.3621
13.4937
13.1947
8.32313
8.02885
7.79035
8.43425
-0.300909
5.26277
5.19308
-8.37102
-7.90201
-8.31436
-7.94409
6.52512
5.96903
6.37293
3.66193
3.50056
-10.7544
-10.832
-11.2093
-10.6328
12.2398
11.781
2.14778
-14.82
-14.5127
-15.1611
-14.8003
2.66233
3.19399
2.34307
-13.7563
-13.6948
-13.5286
-13.698
-14.3964
-14.7628
-14.4005
-13.9489
-14.3618
-14.4515
-14.3752
-14.2835
-13.3721
-13.5977
-13.5083
-13.3721
5.67471
5.82473
12.9088
13.0269
12.6456
0.532474
0.334912
-0.0181428
0.469949
5.88101
5.63781
6.10646
5.95385
7.55304
7.35363
6.77447
7.3458
4.38477
4.86223
4.33278
4.42902
-8.23114
-8.84027
-8.99748
-8.63773
4.73159
5.13629
8.49519
9.35289
9.6292
3.25593
13.7426
12.7427
13.3435
-13.7611
-14.049
-14.176
-13.9431
-13.7246
-13.3704
-13.6881
-13.8904
-13.8123
-14.1642
-13.0599
-13.5563
-13.8822
-13.7263
-13.9104
-13.9705
-14.8228
-14.5287
-14.5461
-5.81311
3.46132
-3.26966
5.60101
6.2739
6.55235
6.30965
12.9358
-13.7325
-13.7337
-13.8559
10.9506
10.4816
11.1872
11.8963
-13.6495
-13.6786
-13.5671
-13.679
4.50141
4.54596
4.55062
4.08113
5.44753
5.65231
5.43085
4.77762
2.84657
3.32629
3.29315
3.24582
-2.20928
-2.26401
-2.42418
-14.7085
15.7252
-11.9135
-10.8216
-11.5601
-7.24863
-6.28471
9.8907
10.7956
9.39405
9.47746
22.2158
19.5997
19.7857
20.5356
-13.3432
-13.4864
-13.45
-13.356
9.56328
10.0767
10.9737
10.1693
14.3808
-14.2974
-14.0362
-13.4007
-13.9784
-12.7397
-13.2036
-13.2448
-13.1372
-11.4899
-11.9102
-11.6436
-11.8978
-11.2931
-11.4013
-10.8236
11.615
11.7125
13.0229
-14.5251
-15.2543
-15.5845
-15.243
22.8628
26.8542
26.6631
26.7164
25.9947
-12.0595
-12.5059
6.25885
6.36609
6.09855
6.23228
-12.591
-12.0845
-12.4549
-12.6899
11.7073
12.2042
11.537
11.6533
-13.96
-14.0271
-13.7488
1.4544
1.07082
1.30756
-12.3141
-12.6787
-12.8061
-12.6743
4.17918
4.15799
4.39858
-2.29759
-3.31412
-4.39941
-5.22726
-5.56114
-5.37469
2.66244
1.93395
1.53609
-9.52959
-9.72579
8.00674
7.99772
8.96832
8.41832
3.69145
3.69708
3.34228
3.99201
23.9441
23.7913
-13.443
-13.4669
10.4495
10.3997
10.7471
11.6013
30.0869
18.4212
0.591721
0.830672
0.569931
0.834982
6.93269
6.66758
6.59704
6.07293
-15.1063
-14.84
-14.7461
-14.2287
0.498126
-1.77912
2.56083
2.86425
3.45259
2.93733
-15.5384
-15.6621
-15.584
-14.8223
13.7203
13.0124
12.7237
13.4736
-7.11756
-6.35156
-7.65078
4.97496
4.57178
4.81939
5.04204
10.3338
10.769
10.7151
11.3678
-15.1231
-13.4562
-13.6089
-13.5281
4.09841
3.87279
3.77211
4.14481
4.86001
4.70284
21.0527
20.9846
5.6116
5.90579
4.99394
5.42889
3.88315
3.48959
3.81964
3.71765
6.58001
7.00861
7.06047
6.88545
-13.2208
-12.8804
-13.155
-13.1905
24.1395
24.925
-8.77315
6.10693
6.45251
6.40171
6.71118
6.75518
28.669
2.16045
2.35384
1.67487
2.36086
7.58528
7.83912
7.98144
7.3426
-12.3921
-11.9899
-11.9568
-11.5404
-9.37166
-9.91795
-3.51264
-4.70894
4.05829
2.18067
1.78069
1.51464
2.23229
6.27041
6.49919
5.9953
6.39908
7.11583
6.95005
6.55924
5.59854
6.19536
5.7805
5.49477
-10.087
-9.59397
-10.9917
-0.0305543
9.56396
7.61007
6.95524
7.74979
4.17869
4.01008
2.86689
4.58201
4.59612
-11.5454
-11.051
-12.304
-12.189
-11.8682
-11.7304
-11.5654
-11.3797
4.73497
4.81422
4.66633
4.83812
4.70804
-14.378
-14.1827
-14.1103
-13.8404
7.70627
-12.1154
-11.8016
-12.3447
-12.4644
-9.67781
-9.39467
-9.48464
-8.72498
2.52837
2.49233
-14.3182
-10.3752
-10.0277
-9.85796
-10.4741
-11.5362
-11.3075
6.31276
6.93849
6.74744
5.855
-12.3263
-11.8605
-12.4409
-12.2196
-18.2332
-16.8373
-18.6338
-16.7692
16.2257
2.83459
2.79013
30.8805
5.70865
4.72541
-0.617361
4.43298
3.92576
6.82449
6.69463
2.86757
25.9365
6.29378
32.8512
32.6711
32.2704
2.26954
29.5482
3.30316
29.7918
31.1134
2.18247
2.43207
15.0563
-8.29541
16.2408
16.5914
-1.4141
1.58069
27.6555
27.2516
32.2681
-7.82354
30.1399
10.448
-8.51758
5.85589
-10.7913
17.4919
-6.18874
-8.10207
0.844422
-1.33169
-0.578271
-4.7114
16.9262
16.1383
14.0793
2.02191
1.7946
1.94036
9.68388
14.861
2.44237
22.9836
32.8344
5.80711
20.992
4.21705
-6.36392
-3.14032
2.33108
2.59793
-1.03433
12.0233
1.05309
7.33453
8.31619
5.18875
5.28456
6.02805
5.83469
1.03221
29.7608
22.4955
21.6173
-1.77656
-2.51724
-2.30636
10.1449
9.63128
1.89101
4.71626
-7.33022
-1.8621
-2.80028
28.5842
28.8051
-0.71566
-0.614497
0.787706
2.92192
8.35374
8.5669
5.01212
5.55046
-3.64077
19.0804
18.2823
-1.78982
-1.92688
-1.66837
13.7877
7.24521
7.45378
5.40896
9.39118
9.3764
23.2508
0.613484
0.754159
1.72609
-13.943
-14.0227
6.99395
0.687894
-0.742253
-0.695729
-6.05723
-14.3633
-0.457654
-0.359858
3.52958
16.3969
4.96505
-5.84518
0.125633
-13.2519
-13.2443
19.7479
20.5331
-0.887065
-0.860978
10.7731
9.99066
2.38006
2.81587
3.51183
-5.23307
-5.82554
-5.44222
5.26022
-12.8264
3.41253
3.34705
2.00877
1.84101
-1.35543
-13.7481
-4.40186
-5.66095
-4.98157
13.5189
13.2869
18.0216
-5.84159
-0.406597
-0.90434
15.1947
24.1395
25.7017
-4.42808
-4.28595
2.40255
34.4426
-9.29216
-4.9015
-4.63787
26.0991
-1.0617
0.658345
0.81728
1.17692
0.907884
-2.55997
-3.10799
-6.73474
-5.73484
28.2817
-13.5392
-13.4994
20.4234
19.1377
19.2896
22.5657
31.428
30.3678
32.6083
12.6892
12.5802
0.47259
4.10661
3.89459
5.21416
5.48493
8.71653
8.1162
8.32486
-0.823005
-1.16083
15.3218
14.1948
-1.39586
-1.84576
-4.15989
7.12505
26.8536
3.12897
-0.364583
4.74007
4.65371
2.55784
21.3554
21.8713
22.7114
7.24553
6.72405
5.92979
2.25035
1.8804
1.85128
-12.5813
-12.7548
1.7723
1.92061
5.0216
5.30286
-2.71647
4.96945
4.96673
5.15705
1.72553
1.94234
2.27186
5.6575
6.06529
5.83506
-6.62697
-6.17139
-0.284687
4.59045
4.3893
4.97494
4.85523
7.93681
8.74426
-1.73752
23.088
33.9814
-8.39545
17.8603
7.57958
-3.12137
-3.82546
-3.06725
-9.6946
-5.14879
-4.45904
30.0421
-4.34504
-4.98521
-12.3921
-12.322
-12.4909
-4.77847
1.26473
-4.55212
-12.278
-12.1861
1.54482
1.75573
1.49499
1.55016
18.8255
1.04118
0.78678
0.936091
-15.1598
-15.7414
26.7806
-0.923086
-0.847555
0.724015
1.12933
-1.00804
-1.0982
-0.824029
3.21287
29.3893
-3.84416
5.57021
-6.33305
9.04064
9.89505
4.78207
2.97134
2.75728
2.32658
3.19777
5.58315
5.49203
3.36221
3.03635
31.1217
31.0296
-14.0046
-13.9837
21.9131
22.5054
23.2331
20.1364
8.27923
7.62976
3.79403
30.3781
30.0165
30.1369
-5.61684
8.11274
8.66266
3.64606
3.34256
1.99453
1.78359
29.6011
29.7115
-13.2127
-13.2217
5.87334
6.7714
6.59379
3.2377
3.50247
2.33119
-11.0288
-10.3552
-1.33046
-2.05698
-1.52494
-1.65614
27.6116
0.992428
24.6774
24.452
25.194
25.1377
31.9732
31.275
31.6691
20.6306
9.32305
-6.35397
-5.68114
-4.67366
3.43138
3.5199
-7.24872
-7.27522
5.65076
6.05835
2.70762
2.78088
0.904908
0.699775
0.703501
-12.7119
-12.9738
26.3846
26.7698
17.3264
16.217
17.3437
14.7185
13.5141
14.7462
-7.98287
-7.12566
-0.616373
3.1062
2.62241
13.7075
13.3771
13.0668
-5.89301
-0.812564
-0.916077
23.8648
23.6167
3.54926
4.01939
4.70929
4.62761
4.59946
-2.74574
-3.05311
-3.12751
-3.26726
-3.05021
11.7635
12.2407
-13.7868
-13.8967
3.9973
4.2186
2.06942
4.439
4.66572
0.241815
0.38428
0.197549
0.342764
0.377737
0.569609
3.63676
3.76025
3.8503
3.21393
1.68647
1.83149
-1.87406
-0.634373
-0.853818
14.9958
-5.83319
-6.12973
-6.29817
-5.1972
1.49925
1.62765
-8.21065
22.7121
22.9638
4.30727
4.16286
34.7127
24.9077
25.895
25.4488
13.9949
13.8485
-1.36127
-1.4473
-1.24181
-11.8077
-11.3463
-11.0764
2.90541
2.64474
2.78758
-0.839891
-1.46676
-0.927433
-3.62013
-3.32958
20.0318
21.1146
0.979996
1.17039
4.61761
-8.812
23.094
23.8745
25.9492
0.367827
0.269406
-7.10196
18.9667
17.7431
18.69
-1.34982
4.97706
5.14946
-1.77283
3.75029
4.72753
4.06011
4.35836
6.88617
6.07549
29.9885
29.8351
-1.66338
3.05856
-10.2905
-10.146
-9.79029
7.51339
14.7021
33.7922
-15.0539
-16.4742
-14.4584
-20.0887
-17.761
-17.0214
-19.5273
5.0111
-19.9235
-19.1464
1.15424
1.16378
-11.0402
-13.5274
-0.433825
-22.2174
-18.3714
-14.1335
-2.05557
1.50312
33.6619
-22.6353
-22.3381
4.40213
-13.5008
-11.2097
2.72133
-14.1166
-23.7027
-18.0501
18.2147
-14.511
16.6591
-14.3251
-14.3774
-10.6419
-12.8014
-12.7636
-11.0061
-13.4164
-14.1085
5.09485
12.826
-8.64433
25.0193
-18.454
-16.9873
-14.9608
-14.2376
-18.7165
-21.1926
-34.0227
-14.0939
-14.0935
5.6974
5.85135
-7.64533
-6.8097
6.02371
-14.0509
-14.7134
-13.0569
-12.9259
-19.1912
-12.2587
-3.5552
34.6096
-14.3381
-4.70753
-10.4618
-14.2094
-10.6081
-6.04133
-5.37428
-2.63104
-2.72147
-13.9534
-14.9169
-16.118
10.939
-12.9404
-14.1372
-22.1589
14.2225
-3.00067
-2.87089
34.0264
5.45421
-5.44637
-6.50003
-23.7305
-16.3274
-14.5805
-15.4665
-31.18
9.89421
9.35354
-0.350989
1.95613
-14.0952
4.24002
-13.9561
5.29991
5.21087
-13.6064
7.70699
3.76546
-14.5884
10.2301
18.2764
17.8773
19.2186
20.849
-14.9732
-15.0302
-15.0964
-15.2392
14.0527
4.23716
-13.1965
11.0733
-4.67454
-19.2388
-24.4045
5.94425
-14.121
-14.1536
-14.3438
-19.8261
-18.9564
-19.2124
-19.6048
-29.1531
-14.5716
-14.1937
11.1526
-13.0238
-28.7485
-1.24139
-1.30247
-26.2374
-23.959
-17.3555
-15.7193
-15.6027
8.75757
8.67865
0.35494
-1.91862
-2.95145
-14.1282
6.69823
-24.5396
-29.3404
-28.8712
-28.4388
0.392539
-24.6793
-16.5163
-16.7908
-27.5147
-36.5434
-17.2362
3.0175
1.91583
3.75369
-12.7895
-36.8065
-8.16403
-9.2242
-13.3985
17.0258
-14.2777
-24.1026
-14.3884
-14.4489
-14.1694
-14.0924
-14.0543
-14.0427
-28.2755
-28.7035
-16.8859
-16.2415
-17.4574
2.95186
2.60966
3.06641
2.78741
-14.3121
-14.2995
16.0696
-23.9091
-22.9681
23.0579
-11.9873
-7.76165
5.41197
4.30849
-13.7764
-13.9191
-13.5355
-13.6453
-14.2972
-14.3514
33.4837
33.5306
16.8328
14.0362
-38.8415
-6.61079
-11.4671
-13.1968
-10.1184
15.7111
17.8668
26.5383
12.4568
-11.2831
-11.874
25.1167
-2.24204
-1.88301
-2.69954
-6.03348
4.31923
-14.5652
-14.4202
-14.3425
-14.366
15.6287
7.54684
11.72
9.02433
-15.8374
-15.5118
-3.03251
30.2524
0.995634
0.940094
5.52194
-3.6524
14.605
13.877
-14.2379
11.5773
11.4969
11.7242
12.5376
32.6207
-6.42795
27.777
22.5704
-6.68273
-7.35231
-6.75957
-5.23032
-4.40019
-5.6768
-14.3962
-14.103
-14.1424
-14.1033
-14.1014
20.8271
13.5441
-14.7003
-14.6157
-14.6137
-18.8738
2.70348
-14.1178
-14.1115
-14.0829
-14.1013
30.0883
29.8626
28.9795
-14.2914
28.8875
28.1358
10.2025
27.4427
-5.57894
-0.285968
-1.40585
-0.50269
0.18251
25.9113
-15.3437
-15.2372
26.2736
-20.1072
-18.96
19.6323
19.805
-13.5946
-17.7667
-17.0818
-17.7207
-17.7697
5.0628
-14.4353
-14.3804
24.4143
-15.0271
-14.8748
-14.8559
33.2078
31.7596
32.2062
32.28
-11.5363
21.9805
-13.999
-14.0083
-12.6559
-13.2859
-12.7706
-13.1867
-12.6006
34.0753
34.9298
-15.4646
20.5585
-14.1276
-14.105
-14.1067
-14.2709
-12.0923
-11.6942
-12.8201
3.92335
29.2035
6.41483
6.05409
6.60803
7.13836
-3.78257
-3.87754
-14.5624
-15.0487
-15.4573
-15.114
-14.4211
-16.0155
-15.6189
17.7134
-12.2542
13.2033
14.1119
14.4613
4.05412
-14.0629
13.5917
-12.7467
-12.6657
-13.1215
-13.8741
-13.9514
-6.0295
-14.0896
-14.1187
-14.1116
-18.0188
-17.4931
-20.4419
-21.7481
7.77366
-2.73266
-3.51179
-14.1759
-3.97009
-3.74578
-5.05527
-3.99506
10.4801
10.4792
-15.2779
-15.4105
-15.2525
-15.056
-6.59173
-7.77966
-7.09759
-7.73054
5.51237
5.40353
-5.67463
-5.4034
-6.2868
1.72709
1.75977
1.65583
0.534623
6.71328
13.2227
-20.1778
-19.255
-8.26853
3.80722
3.80081
3.49129
3.1037
4.95962
5.06577
-1.62124
-1.9021
-1.14102
6.32922
5.22933
25.0419
21.9752
23.6435
-13.6122
-13.468
-12.6763
-13.3387
13.7362
14.0764
-13.8718
-13.7573
-13.9046
15.3228
14.8734
14.9295
-0.874902
-0.474167
-1.06768
-1.70997
-15.2123
-13.746
-13.7356
-13.6954
-13.5849
-13.5982
-13.4627
6.93916
-16.2869
-16.2552
-15.9917
-16.2894
-6.24429
-5.59291
-6.40013
-8.53184
-9.31033
-9.54045
-9.63611
-24.1248
4.61566
4.43177
4.24178
5.08281
-14.3781
-14.351
-14.7096
-14.0735
-13.9562
-0.760033
-1.35655
-0.883042
-0.157585
-16.5992
-16.4687
-16.3052
-16.0029
1.57498
-8.43226
-7.96779
-7.66612
-13.9426
-14.5709
-14.7643
-14.4332
-14.5419
-14.0496
-14.0114
-14.0267
-13.9721
-17.1601
-16.5826
-17.1205
-17.6132
-14.1112
-14.0715
-14.1093
-14.0508
-14.2087
0.969564
0.585107
1.62154
1.1308
2.05398
2.26522
2.29348
-14.2247
-14.338
-14.2739
-14.1509
-14.0898
-11.0937
-10.1758
-14.6575
-14.5183
-14.7061
21.1681
-15.774
10.4772
9.91168
0.983952
0.552383
0.726219
0.364011
-2.68445
-3.28072
-2.52175
-2.50101
21.8651
22.111
20.3893
21.3116
21.8442
5.31269
5.6486
-14.5117
-14.4373
-16.1617
-15.9485
-15.6275
-15.9303
-16.5271
-16.7995
10.4413
9.92993
10.8158
10.8535
-14.8892
-14.7803
-14.6005
-14.688
-13.2126
-13.4679
-14.2339
-14.2902
19.3297
-14.2047
-14.2347
-14.196
-8.27757
-8.72335
-10.4802
-9.04589
-15.4385
-16.745
-14.1732
2.90174
-14.0968
-14.1093
-14.1107
-14.1068
-6.91955
-6.42854
-6.59512
-5.63071
14.8146
14.0666
14.7364
15.1526
-16.1845
-16.1343
-15.7793
-4.06137
-3.25558
-2.93186
-4.37493
32.143
31.7719
32.7735
-14.047
-14.0413
-14.0208
9.3801
-11.5693
-12.1193
-11.2721
5.09542
5.15374
-9.47222
-7.91794
-16.7458
-16.7582
-16.9542
-16.4485
-3.96813
-5.72255
-3.58329
-3.05054
-7.0757
-7.0793
-7.37572
-6.26525
-14.4436
-10.9545
-10.8115
-12.2158
-11.4641
1.05112
0.514757
0.662219
3.13488
17.1098
0.527367
0.981664
0.3797
0.126713
-15.947
-15.5642
-15.5502
-15.2907
-16.0332
-16.355
-15.9638
-15.578
-21.44
0.8025
-0.285814
-13.898
-14.0192
-13.9888
-15.0247
-14.3431
-15.3384
-15.4076
-15.3502
-15.1075
34.8129
-5.76144
-4.99407
-4.82666
-4.3495
-4.97827
-5.24379
-15.4834
-15.2346
-15.002
-15.1713
28.3875
30.3281
29.3321
-14.1112
6.23701
6.00412
6.40415
5.98125
25.8794
4.63686
4.20119
4.86692
5.01761
7.48153
5.89484
6.34799
5.87776
-6.13445
-13.1226
-13.2979
-13.3566
-13.3605
28.8891
31.4066
30.3194
10.9036
11.3807
-1.68042
-6.50565
-6.45687
-4.33605
-4.70411
-16.02
-13.6864
16.803
-13.3655
9.68695
10.2632
10.0585
9.6764
-14.1416
-14.0933
0.113784
-9.38732
-7.98786
-9.03776
-14.2213
-14.1816
33.052
-14.1331
-14.1516
-14.1208
-2.19959
27.8819
27.1384
-1.95199
-2.09003
-1.03812
-1.86441
-16.0395
-16.8422
-16.6989
-16.3208
-14.0659
-14.08
-14.0847
-14.0885
6.44815
-26.0048
-18.0345
-19.0449
-17.8177
-18.5377
18.4024
20.0804
-15.3971
-13.6786
-13.2871
-12.95
-13.0565
-11.5891
-11.419
33.2498
-13.2174
-13.1806
-12.967
-13.2131
11.4759
11.357
0.679897
1.28306
1.07936
1.78328
0.721648
0.407415
7.28344
-6.03034
-7.39902
-6.39326
-6.98595
-7.16011
21.7176
2.37721
1.75275
2.18267
2.3873
-4.0758
-12.5512
-12.132
-12.433
-12.247
19.8145
0.708108
1.17356
-13.2001
-13.2068
-13.1429
-12.5371
-14.5893
-0.105857
-0.163087
-9.12126
-9.6732
-9.25167
-9.67633
-12.3703
-12.7419
-12.7659
-12.7359
8.94927
7.82386
8.42754
8.11037
9.72199
10.3792
-14.4502
-11.9195
-19.3828
3.96355
3.41303
6.98479
-5.74026
-5.57076
-5.37536
-7.00148
18.605
19.0231
-13.9671
-13.7274
-13.0948
-13.1519
-12.8658
-13.064
-15.532
-15.6657
-15.245
-15.3968
-33.6054
-12.3768
-12.179
-0.205235
-0.156752
-0.312876
-0.0561506
25.8457
0.762924
0.892869
0.651068
0.860343
-3.36354
2.92299
-8.36608
-9.7747
-9.64868
-9.45646
3.59601
3.69248
3.5875
4.18106
24.4639
23.2229
-12.798
-13.0823
-12.4432
-12.7679
32.2461
-11.6515
-11.3984
-11.6592
-11.3808
-12.4242
-12.7407
29.4209
29.721
-13.3055
-13.395
-13.3507
-13.1019
15.9828
15.3149
16.3855
5.34453
5.80722
5.69714
5.52092
0.967446
0.302871
0.185954
0.39606
3.34521
2.6561
2.87095
2.60966
6.50733
5.85171
-14.1267
-14.2021
-14.3274
-14.2167
-4.07253
-4.50348
-5.01478
-3.69469
0.628447
-0.0383229
31.5789
4.06481
2.51301
2.43595
-2.25522
-2.53503
-2.45496
-3.71476
-13.3381
-12.956
-12.9479
-12.588
14.9572
-15.6399
-23.06
-23.4876
-15.5061
-10.0927
0.702327
-13.8986
-14.1907
3.68475
-13.1181
-12.1808
-12.5669
3.73229
3.43013
4.26812
4.80806
-3.04462
-2.81574
5.86466
13.6966
-9.52355
24.9157
22.7753
0.19557
0.182121
0.697013
2.76096
2.98241
3.45733
0.0875171
4.23477
18.8184
12.8758
-1.26859
15.1956
15.7299
-3.68484
-3.85759
-3.67694
-17.4233
-5.25907
14.2988
12.5386
-23.5419
9.07239
8.62979
11.2764
-7.28654
-7.43665
-23.7754
-28.6226
-29.042
-24.3286
-10.1017
-9.72486
-24.5868
-24.8719
-25.1471
-25.3598
-21.8352
-24.3961
-25.7873
-26.194
20.6695
-4.62596
-4.44358
-5.09855
-26.4785
-23.565
-23.3315
-23.634
-26.8459
-23.8648
-24.2517
-27.0841
-9.28613
-24.275
-24.8645
-0.411091
-24.5098
-25.1589
-24.7988
-25.4914
-2.61557
-2.03363
-25.0312
-25.7526
-3.59355
-25.1448
-25.6141
-25.4403
-26.0517
-25.7594
-26.3855
6.42518
-34.6258
-26.861
-27.3824
-5.4462
-26.0093
-26.6879
-26.4007
-26.9817
-4.08328
23.4181
6.21595
-15.2546
-8.22844
-19.2745
-19.9208
-6.03505
-6.40426
10.018
-9.70609
-24.9321
-15.3965
-17.3166
-14.5839
-14.0877
12.4576
18.0097
8.27979
8.73754
-20.8106
-8.08867
29.4635
29.645
-11.4665
23.1057
-14.5307
-1.12746
-28.5375
19.2394
-28.727
-16.6843
0.637404
-22.9752
-22.6975
9.90286
28.1302
27.9391
-6.79299
-2.71059
-23.4548
33.7903
34.1673
-13.9266
14.0671
-6.96436
10.1957
-1.56687
32.7938
17.5411
-24.8073
17.1287
17.5095
-18.3801
-3.49221
-6.93044
-2.49795
-5.94646
20.3882
5.97413
26.1043
25.5138
4.68156
-11.9982
37.3501
16.0959
-4.84681
-4.94588
2.76947
3.39757
27.359
-3.46598
-3.52289
-3.60388
-3.70562
4.45094
-14.5501
-4.22201
11.5039
12.4299
18.5712
-11.3663
-15.5089
26.5897
26.1261
4.4292
4.52411
-1.56431
-8.40105
-13.4469
3.51739
-16.6314
4.36276
29.7114
19.6192
1.2434
28.6977
7.10753
-18.3864
26.9525
27.9836
-4.8163
11.2257
14.177
-3.55693
28.2693
27.5269
15.7516
15.435
-16.9569
-16.7123
8.31223
9.74132
9.46904
19.2753
14.6829
12.069
-8.21534
-10.1856
-20.413
20.8069
20.4812
-4.22479
2.11824
-1.7828
9.32184
21.163
15.4977
15.6859
-26.7506
2.70874
-0.231688
-9.62565
30.7586
31.5371
32.1213
15.1253
3.87975
2.38445
-0.619884
-0.531534
2.13587
2.33539
-3.67024
14.8756
23.9732
-29.7079
17.7848
15.8824
-27.4735
-26.9993
-20.8117
-6.26985
-5.89944
-6.2323
-4.91228
-4.61699
27.91
-26.6576
7.31796
-26.3324
-3.26746
-3.06026
-15.9949
-16.3288
-8.34524
15.9149
-25.9807
-4.78742
-4.7004
9.95676
-30.7773
-25.6885
13.6181
27.7001
27.6324
5.31356
10.6799
-14.6086
-14.5357
-25.332
11.82
-33.2715
-25.015
12.0542
12.3635
-24.6713
-6.16968
-19.0233
-24.2543
25.3393
-4.95314
22.3352
-23.6495
-24.0339
30.8044
-0.55492
-4.56404
3.00462
-1.61797
-24.9329
-25.367
-10.9113
-1.56473
16.4511
18.2209
-10.5237
-10.447
-11.4619
2.96956
-17.6377
-17.3422
-3.22907
26.306
-25.6106
-23.8065
-19.2249
17.2238
17.3043
-1.43887
-4.81125
-5.53528
26.9283
26.9186
12.6156
0.380548
-0.252151
-2.73384
4.70355
-0.185695
2.43151
12.6086
0.349785
4.83263
1.29446
3.37712
2.94799
-2.91518
-19.9122
-6.97477
0.885269
-11.3508
1.94428
18.2585
-2.37344
12.4234
13.0457
13.1693
-19.9908
-17.7044
-4.79137
14.7068
0.270502
15.6325
0.950747
-2.72985
0.0991616
9.5993
9.45264
-5.99371
-2.24516
-1.92293
-2.5039
14.6887
15.0605
-12.6375
-1.05919
18.239
18.0234
2.95162
4.32373
-22.1358
-9.4999
-2.09578
-3.75337
-1.29454
0.705036
-11.6977
-14.2746
-14.3077
0.487461
-11.2053
-9.70456
15.2131
15.7154
25.2321
-5.79681
12.2568
0.623865
0.846473
-8.36759
-8.59674
1.49078
25.9312
20.5723
3.37049
15.6305
-11.7538
-27.8879
-28.3975
24.9129
24.0816