/*--------------------------------*- C++ -*----------------------------------*\
  =========                 |
  \\      /  F ield         | OpenFOAM: The Open Source CFD Toolbox
   \\    /   O peration     | Website:  https://openfoam.org
    \\  /    A nd           | Version:  6
     \\/     M anipulation  |
\*---------------------------------------------------------------------------*/
FoamFile
{
    version     2.0;
    format      ascii;
    class       surfaceScalarField;
    location    "1785";
    object      phi;
}
// * * * * * * * * * * * * * * * * * * * * * * * * * * * * * * * * * * * * * //

dimensions      [0 3 -1 0 0 0 0];

internalField   nonuniform List<scalar> 
45893
(
1.89735
-2.69337
0.796012
1.89735
-0.121327
-2.80092
2.61949
-0.722132
1.79029
-1.79029
3.03531
-0.417739
-0.135894
2.73556
-0.996682
-1.50148
0.996682
1.6228
-0.771397
-1.81667
0.771397
1.01889
-0.797774
-0.179237
-2.44938
2.62861
1.77061
-0.09936
-1.67125
1.59674
-1.59674
-1.32583
1.32583
1.44358
-1.44358
2.55305
-1.62417
-0.92888
-1.33325
1.33325
-0.951147
0.951147
1.54873
-1.54873
0.105425
1.58348
-1.6889
1.37349
1.17956
1.79919
-0.0285815
0.949194
1.6218
-2.40621
0.417116
1.9891
-2.28296
-0.123252
-1.54324
1.54324
1.42679
0.417629
-1.84442
1.7803
-1.7803
-1.46219
1.46218
-0.942509
1.96858
-1.02607
-2.40469
0.855755
-1.85461
0.998859
2.22384
-0.627092
-0.442293
-1.84067
-1.72456
-0.12664
1.8512
-1.75977
1.75977
3.34376
-2.01488
-1.32888
-1.70024
1.70024
1.64352
-1.1056
1.56463
-0.459033
1.40231
-1.29688
1.6278
-1.6278
1.5351
0.521571
-2.05668
1.33497
0.200137
2.14937
-1.57954
-0.35895
1.93849
-1.85122
1.85122
1.19812
-1.19812
1.49524
-1.67448
-2.8726
-2.05348
-0.796384
-0.900386
-1.15309
1.11967
-1.11967
1.36598
-1.46534
2.48565
-2.58501
-0.447434
-1.95726
1.24984
0.176955
0.802401
1.38371
1.6516
-2.01488
1.60575
-1.60575
0.0220469
-1.7594
1.73735
-0.389034
2.3329
1.89061
0.389595
0.216531
-2.24954
2.24954
0.209995
-2.53489
0.520006
-0.336722
2.53489
0.695356
-1.59416
2.49454
-2.06047
2.06047
0.18907
-0.11103
0.617319
-0.506289
-0.55212
0.44109
0.0656468
0.0647106
-0.130357
-0.688884
0.979018
-0.290134
-0.540791
0.476334
0.0644565
0.952743
-0.978483
0.02574
-2.29075
0.6195
1.62262
-1.07976
-0.542865
-0.471112
-0.0810077
-1.12792
0.771755
0.356166
-2.25801
-0.191366
-0.866232
-0.433094
1.29933
-0.417832
0.770486
-0.352654
0.584106
-1.00194
-0.0497696
0.00809741
0.0416722
-0.00409969
0.00409969
-0.15402
-1.04284
1.19686
1.35804
-0.940413
0.292545
0.80416
-1.09671
-0.00870869
-0.680176
-0.874941
0.0490033
-0.034827
-0.0141763
0.0753761
1.36736
-1.44274
-0.046402
-0.0170317
0.0634337
-0.633603
1.45017
-0.816564
-2.25777
0.00259816
-0.00259816
-0.297369
1.67085
0.982697
0.0312558
-1.01395
0.589915
-0.940066
0.350151
-0.0368109
0.0446107
-0.00779973
0.874269
-1.54414
0.669874
-0.746108
1.62038
1.22941
0.39321
-0.163272
-0.931114
1.09439
-1.44436
-0.813652
-0.354714
-1.08964
-1.24675
-1.72618
-0.564566
-0.5472
-1.17898
-0.0490954
-0.000674289
0.412903
-1.23024
0.817336
-0.670884
1.08379
-0.834985
-0.395254
0.0170311
0.935712
-1.16376
1.18079
-1.16918
1.09167
0.0775078
-0.253954
-0.873968
-1.35956
-0.847111
-0.247401
1.09451
-1.46391
1.33727
1.36379
-1.39406
0.0302682
1.94961
0.622085
0.259272
1.04005
1.23829
0.848688
-1.13192
0.256981
2.00978
-0.29647
-1.71331
0.471923
-1.63568
0.42509
0.159016
0.84669
0.11759
-0.96428
0.744148
0.102542
1.32643
-1.20884
-1.21326
1.57915
-0.365884
0.353001
-1.33148
-1.25663
0.910201
0.346427
-0.897873
0.93818
-0.0403066
-1.1727
1.37284
-1.22967
-1.05077
-1.05886
-0.677764
1.73663
-1.80497
-2.12135
-1.63294
-0.329075
1.96201
-0.257671
1.40883
-1.15116
-1.10539
-1.76721
1.4601
0.433968
-1.89407
-1.27968
0.800538
0.47914
1.28409
-0.104531
-0.0708272
-1.53899
1.60982
0.701313
1.2607
-1.11843
-0.425713
-1.17055
-1.43394
-2.13134
0.960783
-0.844816
-1.74019
1.39202
0.191461
-0.255168
1.02692
-1.30947
0.219822
0.0334842
-0.0798862
0.00350321
0.0972142
-0.100717
-1.85523
0.0958297
-1.56923
1.27186
-0.119063
1.41744
-0.145577
-1.22021
0.0412295
0.182096
0.795424
-1.25446
1.09865
-0.888653
-2.14311
1.04422
-0.968845
1.09889
-0.882357
-0.543091
1.60335
-1.06026
-1.41919
1.08247
0.317435
-0.761949
1.58718
-1.5547
-0.0324724
1.00484
-0.00174114
-0.962539
0.645173
-0.362663
-0.28251
0.643431
-0.251786
0.825196
-1.07698
0.247443
-0.610106
-0.715096
-0.834157
1.87122
-1.06882
-0.845149
-0.548911
0.153726
0.746357
-0.58916
-0.157197
-1.30504
-0.987605
1.06002
-0.766013
-0.29401
0.144849
0.915174
-1.08513
-0.691925
0.289225
0.498501
0.0217863
-0.520287
0.898011
1.75377
-1.24718
-0.0198516
1.26703
-0.319702
1.03035
-0.710648
-1.38269
-0.0910684
0.472277
1.32097
1.28268
0.662937
0.955482
0.00780388
-0.105469
-1.93722
1.93722
-1.57858
0.518324
-0.632772
-0.94581
1.9711
-2.2908
0.702591
-0.689959
-0.0126322
1.25073
-0.548143
-1.19569
0.0265138
0.221743
-1.31613
0.624203
1.85899
-0.766269
-1.09272
-1.37695
1.34837
-0.184127
-0.771828
0.74179
0.0300387
-0.93847
-1.11704
-0.112629
0.133695
-1.46581
2.32818
-0.862361
0.196838
-1.84013
1.76625
2.56226
1.73776
0.997803
-2.25776
0.0290662
0.00301767
-0.0320839
-0.00682504
0.01403
-0.00720499
0.00978571
-0.0166108
-0.00913577
0.0263958
-0.0172601
-0.00275409
0.0125398
0.00958539
-0.0434225
0.0338371
-0.024008
-0.00113153
0.0251395
0.0264033
0.17217
-0.198573
-0.0629807
0.0533238
0.00965694
0.307579
-0.636411
0.328832
-0.10197
0.124481
-0.0225113
0.0381579
-0.0386135
0.000455593
-0.0704598
-0.0479853
0.118445
-0.121386
0.0509263
-0.068374
0.0216574
0.0467165
0.54
-0.507762
-0.0322384
0.0804584
-0.0855976
0.00513918
-0.535668
0.250818
0.28485
0.101951
-0.0524829
-0.0494679
0.0721951
-0.084775
0.0125799
0.00697273
0.00372323
-0.010696
-0.016993
-0.305098
0.322092
-0.723716
0.777646
-0.0539303
-0.0468924
-0.0385104
0.0854028
-0.0674038
0.0614406
0.00596321
0.0431415
0.0450234
-0.0881648
-0.0200202
-0.00529025
0.0253104
-0.025605
-0.0467313
0.0723363
0.0824308
-0.042897
-0.0395338
0.064416
-0.0678447
0.00342872
-0.0417011
0.0246694
0.00730217
0.058138
-0.0334686
0.0219505
-0.0310863
0.0775134
0.252555
-0.330068
0.00507204
0.00879591
-0.0138679
0.0137091
-0.00231403
-0.0113951
0.0344793
0.0426607
-0.07714
0.968809
-0.532042
-0.436767
-0.191262
0.0756771
0.115584
0.0268382
0.0453569
-0.0467996
0.0671201
-0.0203205
0.0356312
-0.0348496
-0.111414
0.99446
-0.883046
1.15425
-0.53005
0.0216346
-0.0182243
-0.0034103
-0.0521063
-0.0162677
-0.0814528
0.0224397
0.0590132
0.0426953
-0.0869148
0.0442195
0.0771746
-0.00151269
-0.0503401
0.0518528
-0.0689165
-0.0235019
0.0253183
0.0128396
0.0334157
0.0120257
-0.0320458
-0.00341593
0.00341593
-0.00395366
0.000537728
0.0181392
-0.00394026
-0.0141989
0.00217309
0.0199948
-0.0221678
0.021078
-0.0189049
-0.800347
0.552946
-0.695416
0.631667
0.0637492
-0.0145783
-0.0240352
-0.00810842
-0.0125155
0.0206239
-0.0201241
0.0034944
0.0166297
-0.0110599
0.00196055
0.00909931
-0.0209723
0.0219245
-0.000952154
-0.017306
-0.0359408
0.0532467
0.00144938
-0.0495026
0.0480532
0.0436402
0.00816139
-0.0518016
-0.0606452
0.0991642
-0.038519
0.275191
0.195007
-0.470198
-0.045427
0.0695481
-0.0241211
-0.0141605
0.017257
-0.00309643
-0.0243259
0.0101653
0.0176872
-0.000430184
0.0226088
-0.083254
0.106252
-0.0836437
0.346981
-0.718235
0.371255
0.0416736
-0.0968074
0.0551338
0.00125
0.0278162
-0.0290689
0.0707425
0.0452157
-0.0742846
0.0106881
0.0600544
0.224666
0.54582
0.000435219
-0.0281717
0.0277365
-0.00909822
0.0113339
-0.00223568
-0.0125364
0.012992
0.859333
-1.6256
-0.818403
1.67774
0.324013
0.0184147
0.0396692
-0.0580839
-0.0215387
0.00824475
0.0132939
-0.00046067
-0.0109982
0.019243
-0.0418547
0.0484035
-0.00654879
-0.0594202
0.0476142
0.0118059
0.0263248
0.0318133
-0.165492
0.123446
0.0420459
-0.011894
0.00869017
0.0032038
-0.0180715
0.00617758
0.161242
0.378758
0.392283
-0.0341049
-0.358178
0.542916
0.0223097
-0.565226
-0.0399494
-0.0192355
0.0591849
0.0620014
-0.0528887
-0.0100921
0.452841
0.124497
-0.577338
0.382634
0.0702067
0.767928
0.0141363
-0.0207301
0.00659381
-0.0173633
0.0211673
-0.00380401
0.747146
0.0570141
0.0334898
0.000187294
-0.0336771
0.0156055
-0.0301838
-0.0299965
-0.483178
-0.131342
0.61452
-0.769071
0.728764
0.00798764
0.828811
-0.836798
-0.00434371
-0.00708937
0.0114331
-0.0618835
0.00246334
-0.0568223
-0.134439
-0.00533235
0.0918705
-0.0865381
-1.19491
-0.229994
1.42491
-0.905688
-0.95371
0.118462
-0.0669489
-0.0515133
0.065759
0.0527032
-0.0420589
0.0516443
-0.0129762
-0.00782115
0.0207973
-0.00143462
0.0450748
0.00837345
0.0305939
-0.0389674
-0.0283682
-0.000597415
0.0289656
-0.58118
0.79703
-0.21585
0.0701889
-0.651369
-0.0336982
-0.00311274
0.0580793
0.0245443
-0.0826237
-0.518097
0.517242
0.000855148
-0.632465
0.735007
-0.0191975
0.000973221
0.00590361
0.023062
-0.0316519
-0.0203748
0.0520268
-0.0507156
0.0334096
-0.0593715
-0.0275433
-0.0409568
0.0327999
-0.0603432
-0.0159335
-0.0168588
0.0327923
-0.0281254
0.0121919
0.0110062
-0.0278651
-0.00380093
-0.0202071
-0.0286231
0.0248222
0.00430993
0.0197787
-0.0240887
-0.0293241
0.0949709
-0.0591463
0.0629631
-0.00381682
-0.0884704
-0.204106
0.103962
0.100143
0.0561799
-0.00432715
0.0143252
-0.0415175
0.0371904
-0.24734
-1.28082
1.52816
-0.962436
-0.0327132
-0.0431607
0.075874
-0.0530337
-0.0417114
-0.0204861
0.0109833
0.00950274
-0.0123063
0.0227149
-0.0104086
-0.00129877
-0.0196736
-0.0404549
0.0995917
-0.0591368
0.773769
-1.29662
0.522853
0.781573
-0.00268324
0.108936
0.725811
-0.418232
0.570811
-0.67628
-0.10659
0.00978232
-0.129834
1.04501
0.852864
-0.00690435
0.00415026
0.00680476
-0.00690961
0.0716034
0.00885505
-0.0166939
-0.0647589
-0.0646494
-0.0567367
0.0374093
0.0870717
-0.58338
-0.696298
-0.906527
0.323147
0.000729791
0.0169574
-0.0117631
0.00111419
0.010649
-0.0110333
-0.0417979
0.00697097
0.173668
-1.42928
1.25561
-1.07351
0.499928
-0.224737
-0.00513774
0.00513774
0.78627
-0.144606
-0.641664
0.250602
-0.117799
0.359611
-0.241812
-0.658703
0.696787
-0.228996
-0.467791
0.569154
0.127634
-0.0463023
0.615456
0.0822296
-0.927991
0.297554
0.630436
-0.853239
-0.0747512
0.135463
-0.0572195
0.534177
-0.476958
-0.102759
0.106262
-0.649756
0.331304
0.318453
-0.186065
-0.335949
0.522013
0.313863
0.600106
0.4555
0.245878
0.0604661
-0.306344
-0.121128
0.367006
0.256239
0.503437
-0.52043
-0.0243446
0.134059
0.342275
-0.0976438
0.643464
-0.980659
0.695441
0.285219
-0.42309
-0.557569
-0.141204
0.772872
-0.775756
0.487359
-0.0389321
-0.448427
-0.499745
-0.00654389
-0.860419
0.570286
-0.588749
-0.27167
-0.0340637
1.63497
-1.31095
0.264741
0.765609
0.911383
-0.646642
1.01194
-0.714388
-0.423194
-0.0424722
0.0156986
-0.0581708
-1.24342
0.678852
0.114129
0.797255
-0.829048
-0.714919
-0.00150152
0.81192
-0.0655632
-0.970858
-0.0119428
0.0852714
-1.08295
-0.00574648
0.0572166
-0.699698
-0.015221
-0.019162
-0.930383
0.949545
0.975657
-0.628676
0.33342
0.642236
-1.30796
0.809462
-0.239177
-0.787635
0.840742
-0.0531074
0.494636
-0.850875
0.356239
0.559093
1.31833
-0.800006
0.221624
0.822834
-0.299981
-0.0923948
0.730439
-0.793942
0.0291852
-0.764757
-0.0380486
0.0887546
0.0477349
-0.13649
-0.0416027
0.00405252
-0.0150859
-0.0715827
-1.03751
-0.0973403
1.13485
0.015721
-0.0834643
0.452144
-0.318085
0.0308884
0.421256
-0.779647
0.682907
-0.858499
0.175592
0.636604
-0.341302
-0.517197
0.125377
0.433716
0.467652
0.49854
0.658391
-0.00261763
0.00261762
-0.00261763
-0.796939
-0.156771
0.0497937
0.101103
0.408232
-0.509334
0.170843
-0.00689667
-0.163946
2.24388
-0.0365814
-0.0292792
-0.0396878
-0.554528
1.32014
-1.54657
0.304721
1.34973
-0.494748
-0.562345
1.05709
0.103493
0.0144652
-0.430422
0.750367
-1.59057
0.293691
-0.0266841
0.0253853
-0.0243214
-0.00236271
0.0101168
-0.0344381
-0.0831791
0.148124
-0.0649449
1.25997
0.0171838
-0.018669
-0.025874
-1.30497
0.183245
0.874706
-0.691461
-0.010578
0.885284
-0.00529029
-0.0225748
1.41657
0.0560926
-0.19709
0.140997
-1.48721
0.5414
2.0444
-2.0444
0.438654
0.183188
-0.0879425
-0.095245
0.13075
0.052438
-0.780686
0.0274959
1.18499
0.135143
1.05044
0.542673
0.599687
-0.184105
0.0560104
0.128094
-0.0965456
-0.0875591
-0.58904
1.13044
0.330434
-0.506365
-0.0721181
-0.0933743
0.096481
-0.718578
-1.03519
-0.0246462
0.000740999
0.0239052
-0.0010918
-0.0169562
0.018048
0.0161269
0.00119226
-0.0173192
0.011106
0.00303565
-0.0141416
0.00798132
-0.0129292
0.0049479
-0.00465105
0.0131103
-0.00845927
0.00581683
0.00914422
-0.014961
-0.00815657
0.0169143
-0.00875774
-0.00807447
-0.0102381
0.0183126
0.0059307
-0.0155241
0.0095934
-0.0160484
0.00633867
0.00970976
0.0147454
-0.00109714
-0.0136482
0.0117651
-0.0187308
0.00696574
0.0191617
-0.00996264
-0.00919911
0.0185449
-0.0134391
-0.00510582
-0.00314761
-0.00946367
0.0126113
-0.0107359
-0.00349565
0.0142316
0.337795
-0.53518
0.197385
0.00686611
0.011929
-0.0187951
0.0343711
0.0317398
-0.0661109
0.0197687
-0.00368157
-0.0160871
-0.0261649
0.00734849
0.0188165
0.319272
0.0185226
-0.00294099
-0.0119705
0.0149115
0.00622698
-0.0138323
0.00760535
-0.0199296
-0.00181743
0.021747
-0.0189177
-0.00101184
0.0322182
-0.0459876
0.0137694
-0.020223
0.00827104
0.011952
0.0061728
-0.00171037
0.0130922
-0.0113818
-0.0129458
0.0107423
0.00220342
-0.010049
-0.00405486
0.0141038
0.0162349
-0.00397888
-0.012256
0.0558518
-0.0511547
-0.00469706
0.00944627
0.0058461
-0.0152924
0.00686079
0.00582416
-0.0126849
-0.0585362
0.0670085
-0.00847235
0.0185932
-0.00948753
-0.00910571
-0.0232248
0.0055789
0.0176459
0.00243269
-0.0446396
0.0422069
-0.0500503
-0.00773595
0.00773597
0.0154225
0.00992863
-0.0253511
0.0253286
-0.00920168
-0.0100887
-0.00570335
0.015792
-0.0193046
0.0114366
0.00786798
-0.0114855
0.0114855
-0.0180664
0.0150382
0.00302813
0.112966
-0.0340037
-0.0789627
0.0060556
-0.0356009
0.0295453
-0.0336461
0.0397017
0.00683202
0.00708454
-0.0139166
0.00772221
0.00460913
-0.0123313
-0.0255287
-0.000636213
-0.0100626
-0.0154661
-0.00361424
-0.0125849
0.0161992
-0.00940704
-0.00658209
0.0159891
-0.0228069
0.0179918
0.0048151
0.00126799
-0.0201348
0.0188668
-0.00937753
0.00937753
-0.00184077
-0.0131864
0.0150271
-0.272295
0.276188
-0.00389318
-0.0124657
0.0214253
-0.00895964
-0.00104805
0.0180443
-0.0169963
0.00867497
0.00536328
-0.0140383
-0.00968369
0.00968369
0.0120378
0.00806659
-0.0201044
0.0140034
0.00903698
-0.0230404
0.00877402
-0.0200121
0.011238
-0.00402432
0.0169695
-0.0129452
-0.0150767
0.013257
0.00181962
-0.177388
-0.284157
0.461546
-0.0386492
-0.036698
0.0753472
-0.0445507
0.00629848
0.0382522
-0.0352197
0.0326308
0.00258883
0.0133136
-0.0213881
0.00938148
-0.0123946
0.00301309
0.0133666
0.007064
-0.0204306
-0.0270707
-0.00768617
0.0347569
-0.0121129
0.0121129
0.00757476
0.00873355
-0.0163083
0.00390333
-0.0180692
0.0141659
-0.023583
0.0231461
0.000436893
-0.000625626
0.0142845
-0.0136588
0.0371824
-0.0119404
-0.025242
0.0848242
-0.0416828
-0.0343103
-0.0124781
0.0467884
-0.00677061
-0.00873006
0.0155007
-0.00378701
0.0107597
-0.015629
0.012688
-0.173727
0.112715
0.0610124
0.00498804
-0.0127648
0.00777677
0.0109066
0.000237796
-0.0111444
-0.0109438
0.0139278
-0.00298404
0.00531554
-0.0197585
0.014443
0.0182122
-0.00688268
-0.0113295
0.0209208
0.0146074
-0.0355282
-0.00361776
0.01497
-0.0113523
-0.0132829
0.0290302
-0.0157472
0.0107532
-0.0240362
-0.0388752
0.024799
0.0140762
-0.00735873
-0.0315165
0.0198818
-0.00423812
-0.0156436
0.0132763
0.0129254
-0.0262016
0.0308815
-0.0346137
0.00373214
-0.0327406
0.0222843
0.0104563
-0.0193154
-0.0134253
-0.0100745
0.0254969
-0.0186908
0.0221163
-0.0034255
0.00829359
-0.0276089
-0.00423419
0.015529
-0.0112949
0.244548
-0.12424
-0.120308
0.130003
-0.307391
-0.000883568
-0.0327625
-0.0390392
0.0415275
-0.00248832
-0.0190637
0.0236502
-0.00458649
0.0266976
0.0377185
0.048355
0.00530994
-0.0323806
-0.0181848
0.0193771
-0.0188709
0.0201389
-0.0106999
0.0175319
-0.0177469
0.00859383
0.00915303
-0.010183
-0.00756389
0.00622659
-0.0179796
0.011753
0.00734145
0.0124669
-0.0198084
0.0211911
-0.0189948
-0.00219631
-0.0157602
0.0126126
-0.0334108
0.037001
-0.00359019
-0.00988498
0.019566
-0.00968104
-0.0147766
-0.00556452
0.0203412
-0.00639435
-0.0096833
0.0160776
-0.0347053
-0.0184467
0.053152
0.100006
-0.072407
-0.027599
0.0731221
-0.0587841
-0.014338
0.00800909
-0.0174728
0.0172411
-0.00741363
-0.00982746
-0.0133153
-0.0333735
0.0466888
0.0161173
-0.0294327
-0.0154522
-0.0179213
-0.00977374
0.0218115
-0.0138943
0.00384535
0.0315038
-0.0534926
0.0219888
0.0630364
-0.0511558
-0.0118805
0.0204811
0.0123793
-0.0328604
0.0198205
-0.0291413
0.00932078
0.0121441
0.00235386
-0.0144979
0.017389
0.0384628
0.0241592
-0.0014563
-0.0227029
-0.0169515
0.0284332
-0.0114816
0.0591679
-0.0200015
-0.0391663
-0.00506101
0.0230224
-0.0179614
-0.0199272
-0.0141771
0.0341043
0.0304523
-0.0503795
0.0293937
0.00751875
-0.0369124
0.0162562
0.0131375
0.0244907
-0.016972
-0.0046291
0.0179957
0.054163
-0.0146099
-0.0395531
-0.00545579
0.0168323
-0.0113765
0.0169803
-0.0188211
0.0120059
0.0120727
-0.0240786
-0.018575
-0.25372
-0.17849
-0.0443236
0.222813
0.0016776
0.0134822
-0.0151598
0.00282998
-0.0493475
0.0465175
-0.00553057
-0.00880904
0.0143396
0.02306
-0.00778399
-0.015276
0.00689876
0.0161612
-0.0213904
0.0102806
0.0111098
0.00687345
0.00838704
-0.0152605
-0.00607231
0.0187651
0.000479391
-0.0192445
0.012318
0.00644715
0.0190243
0.00145847
-0.0448809
0.00889205
0.00708321
-0.0159753
-0.292978
0.262777
0.0302017
-0.0402973
0.0302352
0.0100622
0.0500625
0.00910542
0.057266
-0.0150647
-0.0422013
0.0209875
-0.0388016
0.0178141
-0.0180517
-0.0405358
0.00173423
-0.040872
0.00765012
0.0332218
0.0362003
-0.0313544
-0.0048459
-0.00363874
-0.0262042
0.029843
0.0265789
0.00430262
0.0229402
-0.0219016
-0.00700595
-0.00486382
0.0118698
0.0124773
-0.0146037
0.00212634
0.0158534
-0.00895464
0.0283307
-0.0235583
0.00905198
0.00794848
-0.0170005
-0.00810725
0.0130953
-0.0110957
0.00859063
0.00250508
0.000464464
-0.0131612
0.0126967
0.0126171
0.000121925
-0.012739
0.0130815
-0.0130393
0.00356495
0.0345265
-0.0380915
-0.0464596
0.0371133
0.00934632
0.0424072
-0.013409
-0.0289982
0.00812843
-0.0211046
-0.000844324
0.0135411
0.100093
-0.103405
0.00331245
0.00399963
0.0960932
0.010395
-0.0144498
-0.0107348
0.0238661
-0.0131313
-0.000623724
-0.0157882
0.016412
-0.0274091
-0.0114733
0.0388824
-0.0134606
-0.0139484
0.0164405
-0.0279138
-0.0272823
0.013523
0.0137592
-0.0171543
0.0335948
-0.0255027
0.0285204
-0.0276648
0.0188878
0.00877697
-0.0216054
-0.00605944
-0.00699921
0.0196109
-0.0126117
-0.00617858
0.0222343
-0.0160558
0.0144227
0.0230115
-0.0374342
-0.00328723
-0.00735912
0.0106463
0.00726338
0.0184053
-0.0256687
-0.00138528
-0.0152249
0.0166102
-0.0147055
-0.00744418
0.0221496
0.010334
0.000408346
-0.00209515
-0.0160896
-0.020966
-0.00955226
-0.0138009
0.0233532
-0.00360155
-0.0345698
0.0381714
-0.0369001
0.0478582
-0.0109581
-0.0149281
-0.021972
-0.0331174
0.0234125
0.00970492
-0.0324976
0.00338933
0.0291083
-0.0388024
0.0352892
0.00351324
-0.0300064
-0.00184155
0.031848
0.0278011
-0.0342769
0.0064758
0.0225108
-0.00451252
0.00451252
-0.034506
0.0380709
-0.0273373
-0.0167062
0.0440435
-0.00682478
0.0287753
0.0239881
-0.0308128
-0.0245456
0.023414
-0.00304786
0.0165993
-0.0135514
0.072072
-0.0496323
0.0199657
0.0279553
-0.0315569
-0.00675398
0.0185179
-0.011764
0.0117951
0.00588065
-0.0176757
0.0214451
-0.0042995
-0.0171456
-0.0171777
0.0279309
0.00123612
-0.0245092
0.0232731
0.0136744
0.00648026
-0.0201547
-0.000616251
0.0142907
-0.015931
0.0224113
0.0153111
0.0218713
0.0297338
-0.00354406
0.0254153
0.0438117
0.00620074
-0.0500124
0.00308069
-0.0459777
-0.0397769
-0.0103151
0.0202437
0.0150135
0.0230419
-0.0156934
0.0109384
-0.0243636
0.0339803
0.485549
-0.290542
0.0252746
-0.0738439
0.0485692
-0.0679353
0.0602669
0.00766844
0.000813844
-0.0354275
0.0258202
-0.0250064
-0.0250727
-0.0103549
-0.0430289
0.0458589
-0.0169832
0.013369
-0.0147776
0.0133923
-0.0322511
0.0290808
0.00317028
-0.0177944
-0.0144567
0.00333962
0.00276683
-0.00610645
0.0135396
-0.0082241
0.00259588
0.00230144
-0.0431734
0.00702873
-0.0134231
-0.242595
-0.126649
0.369244
-0.486923
0.355582
-0.0263172
0.0439032
-0.017586
-0.0343337
0.00801651
-0.0178867
0.0128676
0.00501906
0.00380408
0.0143351
-0.0140826
-0.0359511
0.0526373
-0.0166862
0.00692336
-0.0428745
-0.0147549
0.0395539
0.0432791
0.0080968
-0.0513759
0.0323776
0.0109016
0.0952924
0.0104645
-0.105757
-0.0473071
-0.0689343
0.116241
-0.0244299
-0.00868746
-0.00600115
-0.0184288
0.0159156
-0.024603
0.0594305
-0.0215361
-0.0378944
-0.129336
-0.0443909
-0.0191335
0.00503837
0.0140951
0.000686978
-0.003368
0.0212095
-0.0178415
-0.0240664
0.00393161
-0.0106784
-0.0298574
-0.0449888
-0.00456038
0.0522293
-0.0476689
0.0503651
0.0126712
-0.00129422
0.0295282
-0.028234
0.0316769
-0.0161433
-0.0155336
0.0303827
0.0203947
-0.0101537
-0.010241
0.0856735
-0.133815
0.0481411
0.00560077
-0.0137092
0.0145233
-0.00748195
-0.0070414
0.15139
-0.0374931
-0.113897
-0.00252207
0.0149143
-0.0123922
-0.0111564
-0.0086021
-0.02979
0.00550226
0.0242877
-0.0138744
0.0131153
0.01566
0.0213863
-0.00585338
0.0215134
-0.01508
-0.0244782
0.0395582
0.0292571
0.0233802
-0.001098
-0.00346526
-0.0308685
0.0288902
-0.00150908
-0.0273811
0.0254249
0.00284543
-0.0187765
0.0155052
-0.00876979
-0.00673542
-0.0288677
0.0282078
0.000659886
0.0120532
-0.0409209
-0.0120895
0.374597
-0.426465
0.0518674
0.016179
0.0012457
-0.0174247
-0.00271746
-0.0217102
0.0244276
0.0217123
0.00282233
-0.0245346
-0.000743149
0.0169222
-0.0172195
0.0164764
-0.0416873
-0.00477227
0.0553835
-0.0969862
-0.00486078
-0.0396899
-0.0400804
-0.0152325
0.00937303
0.00585949
0.027952
-0.012748
-0.0152039
0.0200201
0.00793185
0.0296592
0.136343
-0.281968
0.145625
0.0113547
-0.0119784
0.0167397
-0.0105127
0.0546902
-0.00052724
0.000611456
0.0540788
0.0280783
0.00076054
-0.0288388
0.0245342
-0.0587077
0.0238581
-0.0230765
-0.0430908
0.0116025
0.0579456
-0.0234185
-0.0613565
0.0641569
-0.0191335
0.0407384
0.02281
-0.0185645
-0.00424549
0.0272402
-0.0318006
0.0305753
0.0230302
-0.0536055
-0.0138117
-0.0299536
0.0437653
0.0167636
0.00991106
-0.0446164
0.0378894
-0.0279783
-0.0343285
-0.0102879
0.0119113
0.0179959
-0.0299072
0.0199059
-0.0180754
-0.00183055
0.0234135
-0.0172407
-0.0163086
-0.0179872
0.0342958
0.0141823
0.0107238
-0.0249061
0.00699587
-0.0348662
0.0278704
-0.0302575
0.0372534
-0.00781101
-0.0270552
0.0264539
0.0329765
-0.0484695
0.0483502
0.00011933
-0.0220155
-0.0313587
0.012912
-0.0154886
0.0287754
-0.0132868
-0.0468472
0.0496309
-0.0701589
0.020528
0.0188062
0.0055946
-0.0244008
0.00856803
0.0162148
-0.0106202
0.0049261
0.0113088
0.0163613
-0.0114352
-0.00688275
0.0181915
-0.00486554
0.0133779
-0.00851234
-0.0216497
0.00595634
0.000205385
-0.0218551
-0.0184073
-0.00194087
-0.0133744
0.0153152
-0.0153998
0.0134589
-0.00521192
-0.00816245
0.00564901
0.028249
-0.033898
-0.0292386
0.0114442
-0.026898
0.0266404
0.000257595
0.0129661
-0.0398641
0.0395701
-0.0129298
0.0293135
-0.0130573
0.00714566
0.0114334
0.0368391
-0.0579096
0.0210705
0.0862672
-0.049428
-0.0510999
-0.00680966
0.0203646
0.0208507
-0.0412154
-0.0157814
-0.0153287
0.0311101
0.00458323
0.00552205
-0.0288229
-0.00458787
-0.00712385
-0.0216991
-0.0296605
0.0134295
0.00848594
-0.0219154
0.011673
0.00175646
0.0155499
-0.017338
0.00522749
0.0121105
0.00496379
-0.0101368
0.00517304
-0.000474316
0.0054381
-0.0146083
0.0203215
-0.00571313
-0.0224254
0.019759
0.0026664
-0.0370337
0.00420431
0.021983
-0.0261873
-0.0251251
-0.000377649
-0.0204457
0.00817449
0.0122712
-0.00142219
-0.016269
0.0176912
0.0382416
-0.00871346
0.00494389
0.0272733
-0.0322172
0.0431855
-0.0010355
0.0149501
-0.0139146
-0.00304222
-0.0312346
-0.497631
0.406219
0.0914116
0.015645
-0.0550431
0.039398
0.0585626
-0.0429176
-0.00339097
-0.0116857
0.0164302
-0.00925134
-0.0071789
-0.0394066
0.00300038
0.0364063
-0.0155318
-0.0238748
-0.0398741
0.00280605
-0.0263891
-0.0296916
-0.0131128
-0.0194798
-0.0217356
0.0192222
0.0194342
-0.0386563
-0.00112662
-0.0160929
0.0668555
-0.0319122
-0.0349434
-0.0187421
-0.029161
0.0334293
-0.00426828
0.023991
0.0377684
-0.00433906
0.0049619
-0.0269194
0.0219575
0.0238983
-0.0189364
0.0418831
-0.0482623
0.00637922
0.0134874
0.0105006
-0.00763402
-0.0111876
0.0188216
-0.0064629
-0.0185702
0.0250331
0.0214695
0.00665885
-0.0281284
0.0150066
0.0115357
-0.0371477
0.025612
0.0378118
-0.00328534
-0.040433
0.0226915
-0.0373014
0.0339635
-0.0212612
-0.0127023
0.056655
-0.0244497
0.0183467
0.00610292
-0.0239538
0.0225192
0.040866
-0.0206792
-0.00550817
0.0104109
0.0200414
-0.0102683
0.0145333
-0.032138
5.41019e-05
-0.0175306
-0.0291868
0.0292409
0.0287819
-0.00584172
0.0159123
0.0128696
0.00866711
-0.0256186
-0.293446
0.33614
-0.0426939
-0.392523
0.393378
0.0163997
-0.0153119
-0.00108775
-0.0117858
-0.00820171
0.0199875
-0.0225808
0.0828477
0.00929696
-0.0301561
0.0208591
0.0312236
-0.00821205
0.0405205
-0.0383682
0.227362
-0.228739
0.00137711
0.0223538
0.205008
0.040423
-0.00273825
-0.0376847
0.00249457
-0.0404473
0.0379527
0.0382393
0.00617202
-0.0444113
-0.00327246
-0.0348559
0.0381284
0.0349668
-0.0286839
0.0159731
-0.0415782
0.0331852
-0.0275244
-0.00566079
0.0491583
-0.0691026
0.0532623
0.0226117
-0.030751
-0.0554116
0.0861626
-0.00502964
-0.0326551
0.0256829
0.00227242
0.0206533
0.00160356
-0.0107838
0.00918027
0.0199199
0.000744148
-0.020664
0.0137413
-0.000392231
0.00916382
-0.00877159
-0.0199708
0.0367344
-0.0446317
0.0146252
-0.0273332
0.0285693
0.00188125
-0.0411149
0.0392336
0.0401777
-0.00540264
-0.0347751
-0.0548301
-0.0140864
-0.0783319
-0.013504
-0.0125932
0.0260972
-0.0230563
0.0131442
-0.0310374
0.0178932
0.030821
-0.0147036
-0.0383519
0.0220842
-0.0206613
0.0397993
-0.019138
0.00255721
-0.0170372
0.01448
0.014975
0.0011888
-0.0161638
0.0175322
-0.0121376
0.0238032
-0.0116657
-0.0268957
0.0121408
-0.0390333
0.0359441
-0.0298913
0.0148852
0.0150061
-0.017723
0.0306568
-0.0129338
0.045542
0.0111615
0.010203
-0.0213644
-0.00799895
-0.0104084
0.00316251
-0.0172289
0.0222673
0.0151755
-0.0425128
-0.035204
-0.00478192
0.0154214
-0.0106395
-0.0149534
-0.0217255
0.0366789
0.0170944
0.0130584
-0.0301528
0.00214102
-0.0124662
0.0151753
-0.00270911
0.0241798
0.0120205
-0.00842404
-0.0197043
0.0157558
-0.00768384
0.0142161
-0.0164381
0.00222201
-0.00723883
0.0172766
-0.0100378
0.0410525
-0.0284725
0.0264369
-0.0431308
0.0674894
-0.0183323
-0.0183229
0.0366552
0.0176725
0.0200759
-0.0377483
0.001753
-0.000955042
-0.0115871
0.0125421
-0.0116188
0.0106638
-0.00888056
-0.0198476
0.0287282
0.0162393
0.00610631
-0.0223456
0.0188391
-0.0145291
0.0043857
-0.0181866
-0.0209399
-0.0104145
0.0132898
0.0238235
-0.00722131
0.0277024
0.021903
-0.00120608
-0.0206969
-0.00177576
0.0236788
-0.0204235
0.0753836
-0.0549602
-0.0567511
0.0341704
0.109554
-0.0429199
-0.00392735
-0.00694475
-0.0359751
-0.0382558
-0.00218068
-0.0703973
0.072578
-0.0773781
0.0751974
-0.024201
0.0125353
-0.00487984
0.0321532
0.0446884
-0.00298471
0.0227634
0.0160832
-0.0190679
-0.0170377
0.0123606
0.00467719
0.0343726
0.0134856
-0.0123571
-0.0343447
0.0467018
-0.0408002
0.0283221
-0.0437591
0.00295884
-0.0252834
0.0118193
-0.0131316
0.00131228
0.0168038
-0.0085102
-0.0216418
-0.00902035
0.0365422
-0.0275219
-0.0376814
0.00786911
0.0298123
-0.0122761
0.0227724
-0.0104963
-0.0167541
0.0146619
0.00209227
-0.0162773
-0.00334052
0.0196178
0.00133486
0.0136786
-0.0149424
0.0103381
0.00289899
0.0513288
-0.0542278
-0.0429431
0.0458421
0.011657
0.0111064
0.0172359
-0.0080778
0.0191842
0.275241
-0.575222
0.519744
-0.240377
-0.279366
0.794984
-0.815599
-0.010246
0.0172249
-0.00697889
-0.0131224
0.0119163
-0.0233684
-0.0127217
-0.0183646
0.0183945
0.0127156
0.00567284
0.0134688
-0.0122188
0.0134506
-0.0152264
-0.0274452
-0.0426087
-0.0312352
0.0260313
0.0306238
-0.0165774
0.0195307
-0.0157706
-0.0037601
0.00813232
0.0113984
0.0285282
-0.0327964
0.0106346
0.0233958
-0.0340304
0.0391628
-0.00731686
-0.00293718
0.010254
-0.0110206
-0.0120357
-0.018426
0.00740538
-0.0223289
0.0102932
-0.00574419
-0.0287618
0.0263874
0.00334647
0.0206432
0.000130203
0.0335117
-0.0336419
-0.0382011
-0.00482777
0.00519482
-0.0107885
0.00559371
0.010883
-0.00308665
-0.00779636
0.0160778
-0.0138752
0.0110294
0.00991773
-0.0209471
-0.0141919
-0.013417
-0.00349929
0.0136134
-0.0285415
0.0247548
-0.0226625
0.0312656
0.0550016
-0.348307
-0.302568
0.650875
0.00309078
0.0100027
-0.0130934
0.0119033
-0.0239378
0.0120345
0.0202156
-0.0156323
0.0321189
0.00528585
0.00874101
-0.0140269
-0.010292
-0.020268
0.03056
-0.0237526
-0.0195075
-0.00617996
0.0182056
-0.0204592
0.00588303
0.0145762
-0.0266392
-0.0086576
-0.0294338
0.0256604
0.00489964
0.0170028
0.0166555
0.0288864
-0.0255681
-0.0121802
-0.00891255
0.00575056
0.0179282
-0.0150713
-0.00215759
-0.0262384
0.00955222
-0.0101678
0.0256518
-0.0154839
-0.00264907
-0.0129443
0.0155934
0.0342985
0.0751148
-0.109413
-0.0960208
0.130319
0.00154346
-0.00819738
0.00665392
0.00551682
0.00682884
-0.0123457
0.0262396
-0.0195103
-0.00672927
-0.00527689
0.0147855
0.0127509
-0.0638508
-0.0439174
0.0566682
0.0236898
0.0140786
-0.00848582
-0.0181534
-0.00407477
0.0180822
-0.0648135
0.0703882
-0.0150047
-0.0798182
-0.0277237
0.0122716
-0.0111587
0.0281615
0.0144553
-0.01853
0.0175906
-0.0206328
0.00429539
-0.0126212
0.0083258
0.00201184
-0.0417888
0.0428451
-0.0078783
0.044857
-0.0496671
-0.000411554
-0.0411742
0.0415857
0.0428131
-0.00468475
0.0424016
0.00655822
-0.042499
0.0429444
-0.00914536
-0.033799
0.0108398
-0.0424917
0.0442033
-0.02355
-0.0262922
0.0212312
0.017611
0.027074
-0.00584278
-0.00633675
-0.0436757
0.0420857
0.0151803
0.035749
-0.0284954
0.00896659
0.0109393
-0.00929163
0.00697759
-0.00642936
0.00963316
-0.0138803
-0.0153582
0.000948043
-0.0148284
-0.0105728
-0.00779734
0.0183701
0.0116209
0.00477885
-0.00301849
0.0438909
-0.00230519
0.00312944
-0.0369285
0.0470203
0.0145096
-0.00379219
-0.0107174
0.00421322
-0.012291
0.0187229
0.00831951
-0.0152023
0.0131043
-0.0112717
-0.00183267
0.0214239
0.364068
-0.447533
0.574751
-0.210682
-0.663805
0.216272
-0.0182246
-0.0174025
0.0356271
0.0160836
0.0119003
-0.0279839
0.0748978
-0.0341594
0.00343414
-0.0631806
0.0597464
0.00983846
-0.0124875
0.0201328
-0.0102943
-0.0333247
-0.063908
0.0972327
0.0707566
0.0114372
-0.0821937
0.0374319