/*--------------------------------*- C++ -*----------------------------------*\
  =========                 |
  \\      /  F ield         | OpenFOAM: The Open Source CFD Toolbox
   \\    /   O peration     | Website:  https://openfoam.org
    \\  /    A nd           | Version:  6
     \\/     M anipulation  |
\*---------------------------------------------------------------------------*/
FoamFile
{
    version     2.0;
    format      ascii;
    class       volVectorField;
    location    "1785";
    object      U;
}
// * * * * * * * * * * * * * * * * * * * * * * * * * * * * * * * * * * * * * //

dimensions      [0 1 -1 0 0 0 0];

internalField   nonuniform List<vector> 
30718
(
(9.37592 0.0802343 1.07872e-16)
(6.56184 0.0320927 -2.29014e-16)
(10.1908 -0.102089 0)
(9.27487 -0.0182693 -8.17563e-18)
(6.51627 0.143589 1.42852e-17)
(9.26378 -0.269159 -7.16693e-17)
(9.16811 0.2726 -2.78254e-19)
(8.96003 -0.128948 3.25694e-17)
(8.98194 0.105768 -3.53177e-17)
(5.54389 -0.0769087 9.17282e-17)
(10.3362 0.0671424 -4.76242e-17)
(9.13806 0.246187 0)
(9.06833 0.188522 -1.54455e-16)
(5.89019 -0.0399406 0)
(10.5233 0.286587 1.34034e-16)
(10.2478 -0.00829489 6.06655e-18)
(10.4198 -0.0370865 0)
(6.16638 0.145543 0)
(5.51513 0.00587225 -6.83878e-17)
(6.65749 0.0822993 -3.99903e-16)
(9.1623 -0.0607254 -1.4035e-16)
(6.12019 0.159415 1.51206e-16)
(6.26013 -0.161413 4.07268e-16)
(6.74922 -0.161339 -4.66413e-16)
(10.5767 -0.0587197 0)
(9.1051 -0.0140471 0)
(10.1508 0.10849 0)
(9.0121 -0.0154004 0)
(9.50831 0.0747058 3.63708e-18)
(9.64341 0.101026 1.38709e-17)
(6.07443 0.0488871 3.67183e-17)
(10.0916 0.0902357 -1.49068e-17)
(7.39105 -0.0432529 0)
(6.64913 0.22283 1.64957e-16)
(10.4388 -0.157528 -3.18778e-18)
(9.65685 -0.206727 3.77586e-17)
(10.5072 0.152094 -6.5589e-17)
(8.59758 0.029742 1.28277e-16)
(9.38783 0.0424176 -9.13768e-17)
(10.4404 0.0687283 -8.73456e-17)
(5.89735 -0.111854 0)
(9.34005 0.164983 -4.04584e-18)
(6.02926 -0.0503728 9.94201e-18)
(9.73675 0.223724 4.03065e-18)
(10.1334 -0.117661 5.13919e-19)
(10.2748 -0.0916106 0)
(6.17457 0.0606032 3.93927e-17)
(10.2217 -0.246704 0)
(10.4291 -0.285228 -5.53972e-17)
(8.4151 -0.22509 1.82907e-18)
(10.3463 0.00641567 0)
(7.44891 -0.155401 -5.83474e-17)
(5.88933 -0.207081 0)
(10.5775 0.0317917 -1.49906e-16)
(9.01858 -0.065458 9.54325e-17)
(8.83989 -0.213717 0)
(9.91761 0.226354 -2.49437e-17)
(9.93919 -0.0161369 7.82664e-17)
(6.08499 0.183305 0)
(10.6637 -0.119871 -2.51354e-16)
(9.20037 0.00457633 1.62405e-16)
(8.97996 0.0935403 -6.32373e-18)
(9.30388 0.00134274 -1.34002e-16)
(9.99713 0.320397 0)
(9.99937 0.151944 -8.22515e-18)
(9.47908 0.166961 0)
(9.30212 -0.293384 1.1191e-16)
(7.52228 0.247774 1.24243e-18)
(5.8886 0.0596564 6.76785e-17)
(10.2348 -0.16995 -1.22574e-16)
(8.88414 -0.132579 -6.51667e-17)
(10.1431 0.156675 -2.17417e-16)
(10.6354 -0.120088 0)
(9.03718 -0.0206691 0)
(9.10865 0.0540294 6.43459e-18)
(8.76473 -0.0990832 -7.7069e-17)
(10.3102 0.0672391 1.83891e-16)
(9.22683 0.0175749 -5.98838e-17)
(7.26297 0.154818 7.02048e-17)
(9.66961 -0.14671 0)
(8.86049 -0.120506 3.26833e-17)
(10.4677 -0.108613 -4.21813e-17)
(10.1989 0.0875077 -1.47413e-17)
(9.65113 0.144795 4.55202e-16)
(7.28769 -0.140487 -4.47659e-16)
(9.5832 -0.168633 -6.69771e-18)
(10.6719 0.179979 0)
(10.2712 -0.148107 6.83899e-18)
(10.5259 -0.150719 0)
(7.30593 -0.045107 -3.11294e-17)
(10.7037 0.068303 -5.35025e-17)
(9.82879 -0.120687 6.53393e-18)
(9.00144 0.228699 0)
(8.98395 0.223776 3.55949e-17)
(6.94628 -0.276601 9.47669e-17)
(9.09887 -0.12896 1.05059e-17)
(8.59626 0.218616 -6.61722e-18)
(8.85765 0.119433 3.27477e-17)
(10.1899 -0.112955 0)
(9.0577 0.0612763 2.55915e-18)
(8.98571 0.192357 -8.02277e-17)
(9.21143 -0.168705 -6.93461e-19)
(10.0276 0.00235431 0)
(9.19669 -0.092904 0)
(8.88739 0.187089 -2.44114e-17)
(8.93602 0.193947 2.37219e-18)
(5.86261 -1.24723 -2.24937e-17)
(3.33115 -0.502117 0)
(9.03739 0.122534 0)
(9.64085 0.130753 2.03254e-17)
(9.11804 0.256342 -1.84208e-17)
(9.11061 -0.139146 1.66281e-18)
(9.06903 -0.141845 4.27297e-19)
(6.16506 -1.35403 0)
(9.85469 -0.186754 -2.37314e-17)
(6.46347 -1.46275 -2.59821e-17)
(8.95429 0.0367504 0)
(8.92469 0.0105093 9.8501e-17)
(3.02414 -0.347646 -1.39356e-17)
(8.98286 0.0433877 1.24529e-17)
(8.63564 -0.0567161 3.55983e-17)
(8.05326 -0.0823781 -1.17236e-16)
(6.06219 -2.22063 0)
(9.22466 0.101798 3.19417e-17)
(9.28905 0.185657 -1.33282e-17)
(9.06896 0.0810458 -1.54662e-17)
(9.06329 0.134079 0)
(10.1544 0.0485549 1.14803e-18)
(10.4429 0.063584 -1.69373e-18)
(9.47447 -0.0974654 0)
(10.1527 -0.181959 0)
(10.4048 -0.199185 0)
(5.90696 -1.02837 -2.8732e-17)
(9.01747 0.138263 6.73817e-19)
(9.05114 0.148675 -4.75463e-18)
(9.03329 0.115152 -1.19486e-18)
(8.86049 0.135552 -3.82167e-17)
(9.00763 0.0885281 -9.01233e-17)
(8.89357 0.141989 2.30128e-17)
(9.29527 -0.161109 -2.19783e-18)
(9.73861 -0.13158 9.02413e-19)
(8.92567 -0.271272 3.63446e-17)
(9.81897 -0.216737 -5.37388e-17)
(9.70007 0.279485 -9.29915e-17)
(9.00573 0.00962048 -1.04491e-17)
(9.18468 -0.0603856 -8.72222e-18)
(9.13195 -0.101323 9.52455e-18)
(9.28135 -0.103333 1.05547e-17)
(9.08734 -0.156512 -4.36396e-18)
(10.5732 0.12697 2.05631e-17)
(9.28799 0.0992631 6.68191e-17)
(8.94467 0.228838 -3.14837e-17)
(8.81546 -0.229083 -4.80117e-17)
(8.68219 -0.273043 5.53189e-17)
(9.42596 -0.166427 1.08689e-16)
(9.34324 0.0820012 5.88209e-17)
(8.94045 0.10321 0)
(9.84279 0.217059 3.22122e-16)
(8.82627 -0.310498 2.63295e-17)
(9.83314 -0.202259 -4.18201e-17)
(7.96018 -0.0142106 -1.51605e-17)
(9.95942 -0.200336 0)
(9.38315 0.344475 -1.52884e-18)
(9.88525 -0.198389 2.8393e-16)
(9.06629 0.0650672 0)
(9.08584 0.0111238 0)
(9.06981 0.0455753 -3.9487e-18)
(9.06538 0.0489738 0)
(8.84735 -0.287078 3.08407e-17)
(10.205 -0.37462 3.77336e-17)
(10.5882 -0.0396471 -3.99811e-17)
(8.3296 -0.341147 -1.60932e-16)
(8.73924 0.191596 -3.6528e-17)
(9.49632 0.138184 4.19533e-18)
(10.9279 0.300025 7.28534e-18)
(9.64552 0.0375234 0)
(10.7688 0.4141 -1.04449e-17)
(9.06631 0.0713253 7.25911e-19)
(9.19866 0.0707366 -3.39369e-18)
(9.25967 0.0441986 -7.53238e-18)
(9.02483 0.112411 -1.10831e-18)
(9.10749 -0.141577 -1.1711e-17)
(9.55846 -0.098558 5.18563e-17)
(8.97274 0.163392 0)
(10.3188 0.177588 1.00885e-17)
(10.4141 -0.0987937 0)
(8.84278 0.243401 3.42699e-16)
(9.45341 -0.0942097 -4.21383e-18)
(10.067 -0.103404 9.28938e-19)
(10.0278 -0.0799482 2.03242e-18)
(9.58065 -0.0977098 -2.86872e-20)
(6.53779 -1.19461 0)
(6.84637 -0.740526 0)
(10.3589 -0.112223 1.25613e-16)
(8.92666 0.0634693 -1.31784e-17)
(8.95239 0.0423832 0)
(8.92761 0.0730699 2.57401e-18)
(10.1498 -0.0651365 0)
(10.1818 -0.117867 0)
(10.6632 -0.125614 -1.52953e-17)
(10.0757 -0.318143 1.74856e-18)
(10.3979 -0.219834 -5.80544e-18)
(10.5582 -0.193804 7.2959e-18)
(10.537 -0.100811 -7.72171e-18)
(10.4533 -0.0513868 2.03529e-17)
(10.5503 -0.150443 0)
(10.661 0.0654831 -4.42423e-18)
(9.28972 0.160388 -2.16801e-17)
(10.4764 -0.0629506 1.09367e-16)
(10.174 -0.201438 -4.25717e-17)
(10.0558 0.105743 -2.27084e-17)
(8.60532 -0.0349709 5.91162e-17)
(9.86031 0.236853 9.48146e-17)
(8.66632 -0.244579 2.22446e-18)
(8.44849 -0.243041 0)
(8.50004 -0.283756 0)
(9.81094 0.277543 -1.89966e-17)
(9.61499 0.372609 -2.96613e-18)
(8.49723 -0.168237 -3.53862e-17)
(8.68149 -0.169298 7.15999e-17)
(9.07977 0.132104 4.24044e-18)
(9.07 0.100672 1.20734e-18)
(9.93725 0.0799226 5.46346e-17)
(9.70758 0.276965 6.98316e-17)
(10.0138 0.191742 -5.21322e-17)
(9.43136 -0.211524 5.92253e-17)
(8.90077 -0.284177 0)
(9.59506 -0.309785 0)
(9.52319 0.12332 -3.22829e-17)
(9.53818 0.0573058 5.09637e-18)
(9.0673 -0.0721765 1.34812e-17)
(9.10258 -0.0991448 2.54074e-17)
(9.05475 0.117048 -7.43946e-18)
(9.06077 0.0895274 3.90971e-18)
(9.58866 0.20153 -8.07805e-17)
(8.53261 -0.111382 1.48456e-17)
(8.69223 0.234678 -1.27798e-16)
(10.1139 0.270111 0)
(8.89143 0.143332 8.83241e-17)
(9.33315 0.128068 2.22371e-17)
(10.3167 0.119931 4.64634e-17)
(10.7223 0.0303686 0)
(9.50962 -0.200358 4.05419e-18)
(8.97669 -0.262888 -7.43324e-17)
(9.14992 -0.0838457 -9.47409e-18)
(9.22414 -0.103847 9.90557e-18)
(9.5441 0.0816859 -5.6594e-17)
(9.2229 0.0821838 0)
(9.25413 0.202353 5.72099e-18)
(9.17395 0.241579 1.9389e-18)
(9.70126 -0.144374 -2.19267e-18)
(9.53771 -0.207854 7.64105e-17)
(7.62463 -0.103402 5.31674e-17)
(10.4091 0.0225548 -1.88511e-17)
(9.09808 0.191947 3.77434e-18)
(9.10909 0.169864 0)
(9.15814 0.168267 -8.43337e-18)
(10.2167 0.150524 2.02479e-17)
(7.64322 -0.0254206 0)
(8.14504 -0.0311651 1.13628e-17)
(8.88976 0.108342 -5.30688e-17)
(8.90927 0.0986416 7.82556e-17)
(9.05478 0.0707755 1.27006e-17)
(9.05441 0.0394516 -3.29091e-17)
(9.05743 0.0530328 2.40101e-17)
(9.7392 -0.0108266 -2.56769e-17)
(9.41741 0.0564163 0)
(9.54431 0.321097 1.39884e-18)
(8.4966 -0.0806388 0)
(8.8474 0.0388035 -2.96723e-17)
(8.27829 -0.0587498 2.24232e-17)
(8.02838 -0.0113684 -2.48565e-17)
(9.4893 -0.0347662 -4.28354e-17)
(9.12522 -0.0939354 2.31354e-17)
(9.43762 -0.020233 9.97378e-18)
(10.1736 -0.117784 -3.91818e-17)
(10.1354 -0.128223 4.91287e-18)
(10.1942 0.0727664 1.22148e-17)
(10.4648 -0.100852 5.20548e-17)
(9.19669 0.269133 -6.13575e-19)
(9.58421 -0.102742 5.97941e-17)
(9.76035 0.153172 0)
(8.64153 0.92693 0)
(5.65084 -2.24732 -2.32492e-17)
(5.59244 -2.24466 6.93669e-18)
(8.13595 0.856559 -8.5515e-19)
(5.57737 -2.35173 4.27265e-18)
(10.0249 -2.29971 -5.14455e-18)
(10.0433 -2.48156 0)
(7.57831 -0.337952 5.4234e-17)
(8.50207 1.4934 0)
(8.88717 -0.316301 -1.22468e-17)
(10.0671 -1.88652 0)
(5.5406 -1.1708 0)
(9.81325 -1.56501 -7.97764e-18)
(9.89763 -1.55694 -3.93053e-19)
(8.54862 1.35431 -2.23735e-18)
(9.09567 0.34738 7.50854e-18)
(8.50946 1.31385 6.12303e-18)
(8.94274 0.341367 -1.16966e-17)
(10.5334 -1.94864 1.69129e-17)
(8.49779 1.36004 0)
(5.9406 0.766332 1.75744e-18)
(8.8496 0.462287 5.2533e-17)
(9.25768 0.441625 -4.66101e-17)
(10.3747 -1.99966 -4.06992e-18)
(8.39107 1.40445 0)
(8.58419 1.34017 -1.94954e-18)
(7.6044 1.34507 8.77302e-20)
(6.13781 -0.0182736 -2.79141e-17)
(10.2576 -2.06622 -3.97625e-18)
(8.54634 1.42768 2.2034e-18)
(6.33805 -1.56735 1.66994e-17)
(6.22868 -1.50951 -2.67002e-17)
(6.31766 -1.82241 1.55044e-17)
(8.2013 0.853179 -1.40939e-18)
(9.07255 -0.426422 3.75924e-19)
(5.37485 -1.98531 9.14616e-18)
(5.46826 -2.19455 -8.52433e-18)
(9.69744 -2.13987 -5.44574e-18)
(9.04489 0.179292 2.74971e-18)
(7.82675 -0.44482 -1.81465e-18)
(8.48538 1.36739 0)
(10.1531 -2.00439 8.34531e-18)
(10.2315 -2.01594 7.87537e-18)
(10.1384 -1.89435 0)
(9.01801 0.102325 2.37042e-17)
(9.04233 0.0770571 2.06909e-17)
(9.03509 0.100622 -6.35327e-18)
(5.31681 -1.09358 0)
(8.52272 1.35879 -2.32047e-18)
(8.48663 1.35858 0)
(9.8303 -2.04803 0)
(9.74288 -2.07435 0)
(8.44604 1.37209 6.37516e-18)
(8.42913 1.39126 0)
(8.4747 1.37701 0)
(5.59617 -1.30662 -1.44128e-17)
(5.71806 -1.34599 2.85126e-17)
(7.69547 1.31608 2.64688e-18)
(3.26474 -0.950578 0)
(4.63441 -1.1446 -8.259e-18)
(7.93681 0.697857 -5.68425e-19)
(5.28542 -0.586306 0)
(5.17449 -0.633046 0)
(8.8097 -0.348358 0)
(9.36507 0.464548 0)
(5.52992 -1.01418 0)
(8.98841 0.884789 1.6538e-20)
(8.94971 0.802392 1.28537e-19)
(5.55385 -2.52062 0)
(6.17152 -3.16714 -1.14172e-17)
(9.96984 -2.22291 0)
(10.0297 -2.14187 -4.36905e-18)
(8.42722 1.26082 4.09102e-18)
(10.0873 -1.53887 -1.23529e-17)
(9.51386 0.723802 -1.76988e-17)
(6.75582 -1.45996 -5.558e-18)
(5.39047 -1.54226 6.86911e-18)
(5.42738 -1.41856 -5.29655e-18)
(5.45914 -1.65116 0)
(10.1843 -1.53245 2.59795e-17)
(10.1159 -1.39546 -2.0175e-17)
(9.45291 -0.389478 0)
(8.42696 1.29818 2.56167e-18)
(8.62434 0.879714 5.31945e-20)
(8.45302 1.31641 2.92886e-18)
(8.47612 1.30178 -3.29769e-18)
(8.45717 1.33863 0)
(8.87556 0.207482 -9.63175e-18)
(5.83201 -2.25469 4.79899e-18)
(5.33085 -1.32958 0)
(5.41974 -1.24113 0)
(5.36289 -1.19449 0)
(5.40299 -1.33238 0)
(9.02774 0.0386428 -2.26323e-17)
(9.03263 0.04521 -1.48623e-18)
(9.01141 0.0179801 9.58179e-18)
(9.844 -2.19873 4.44232e-18)
(5.2132 -0.865843 0)
(5.16594 -0.725113 2.94285e-18)
(5.15275 -0.933218 7.20486e-18)
(8.37689 1.32829 0)
(8.52838 1.29816 1.2501e-18)
(6.38004 -1.94893 -1.5796e-17)
(9.68866 -1.1603 2.15255e-17)
(5.54175 -2.02293 4.82688e-18)
(5.54464 -1.88106 1.19212e-17)
(9.11709 0.393913 -1.14378e-18)
(9.2359 0.591314 -2.11671e-18)
(9.21198 0.497179 2.28706e-17)
(10.3788 -1.85397 -1.69489e-17)
(10.4759 -1.88323 3.98231e-18)
(8.4769 1.45271 2.93599e-18)
(8.43324 -0.412661 -2.16781e-17)
(8.46549 -0.491316 -2.38788e-17)
(8.48446 -0.339858 0)
(8.58469 0.582471 1.38942e-20)
(8.50306 0.587325 0)
(9.1344 0.307648 0)
(5.80733 -0.681932 -3.28154e-18)
(5.6322 -0.952392 -4.70834e-19)
(5.83235 -0.91667 4.12868e-17)
(5.66436 -0.706035 3.81461e-18)
(8.71558 -0.50481 -3.27228e-17)
(8.72316 -0.354235 0)
(9.08558 0.269724 5.14234e-19)
(5.22628 -1.5442 -2.19628e-17)
(8.50828 1.31311 -2.95962e-18)
(8.18917 -0.521678 2.48927e-17)
(9.57435 -1.16301 -2.23011e-17)
(9.32816 0.339955 -2.77338e-17)
(9.32524 0.259602 4.86032e-17)
(9.23876 0.398787 7.17611e-17)
(10.2368 -1.77181 1.22959e-17)
(10.1936 -1.7068 0)
(10.0547 -2.27637 6.8464e-18)
(8.69123 0.780879 0)
(8.39626 1.24535 -3.37692e-18)
(5.54181 -0.48206 0)
(5.37524 -0.718129 0)
(5.37566 -0.575475 0)
(5.59912 -0.685838 0)
(8.65174 0.251862 0)
(8.66701 0.219231 1.06076e-17)
(6.06504 -2.02568 -6.23553e-18)
(8.37176 1.31835 5.70831e-18)
(8.5906 -0.50283 -2.80452e-17)
(8.61021 -0.339878 2.59885e-17)
(5.32337 -0.993318 -5.90384e-18)
(5.36787 -0.800886 -8.74831e-18)
(5.29524 -0.868085 1.15126e-17)
(5.42397 -0.96637 5.0071e-18)
(9.89219 -2.331 -1.16129e-18)
(9.94361 -2.25848 5.4859e-18)
(9.8669 -2.08973 -1.4316e-18)
(9.8745 -2.16854 3.78492e-18)
(9.94925 -2.0659 -1.84738e-18)
(5.79874 -1.80941 7.71698e-18)
(5.83946 -1.61159 0)
(5.65565 -1.81632 -8.65407e-18)
(10.0627 -2.4756 1.33785e-19)
(10.0856 -2.46318 -1.08887e-19)
(7.61388 1.17943 -1.61296e-19)
(6.76706 -0.371349 -1.73172e-17)
(6.38714 -0.457267 0)
(6.56653 -0.280111 -1.97647e-17)
(8.72369 0.981571 0)
(8.43453 1.35453 -5.76219e-18)
(8.41332 1.32411 0)
(8.45136 1.34019 0)
(9.47337 -0.0983038 0)
(8.83413 -0.133556 2.17025e-19)
(10.0564 -2.03604 0)
(10.131 -2.03065 -9.05103e-18)
(10.0597 -2.11986 4.75231e-18)
(5.82619 -2.03887 0)
(5.94973 -1.84801 0)
(5.83946 -1.88558 0)
(5.96572 -2.00985 0)
(6.12314 -2.99723 -1.06785e-17)
(9.65867 -1.48595 3.81633e-18)
(9.01172 -0.224927 0)
(9.18631 -0.157861 1.21709e-18)
(10.0664 -1.37761 5.12816e-18)
(8.91597 -0.290846 0)
(9.07844 -0.190823 3.02891e-17)
(9.00467 -0.230654 -1.65809e-17)
(8.9725 -0.258276 0)
(8.44077 1.26776 8.48053e-18)
(9.01862 -0.0730501 -2.59052e-17)
(8.77643 -0.0497152 -3.75807e-17)
(5.52526 -2.35179 0)
(5.49145 -2.27746 -1.04573e-17)
(5.52964 -2.40546 0)
(8.49324 1.3291 -8.51342e-18)
(8.48092 1.35088 0)
(9.95804 -1.63442 0)
(10.0446 -1.8013 -7.08085e-19)
(8.77638 0.176527 -7.56122e-19)
(8.80528 0.145702 2.37532e-18)
(5.48485 -1.72495 3.2898e-18)
(5.43428 -1.88173 0)
(5.41716 -1.78376 0)
(5.51595 -1.8557 -1.58366e-17)
(6.2028 -1.19203 2.16073e-17)
(10.0146 0.195882 -5.97564e-17)
(9.01156 0.135183 -7.52054e-17)
(9.53984 0.673043 0)
(3.34143 -0.720037 8.95808e-19)
(8.97335 0.282495 2.76537e-17)
(8.96914 0.311302 -2.78949e-17)
(6.42391 -0.19398 -3.49809e-17)
(7.88711 -0.0310109 0)
(7.21472 -0.125663 8.71741e-18)
(7.24223 -0.121534 -8.2583e-17)
(7.27025 -0.0659153 6.94333e-17)
(9.30488 0.489492 0)
(9.02979 -0.220724 -4.38571e-18)
(8.89019 -0.230988 -4.64574e-18)
(8.54159 -0.370456 -4.54848e-17)
(8.53813 -0.459833 0)
(8.35177 -0.0104051 4.88258e-17)
(7.05807 -0.602678 0)
(8.89203 0.255878 0)
(8.90931 0.230768 2.01985e-17)
(9.68818 0.810479 -2.41764e-17)
(9.62764 0.686874 0)
(8.9616 0.234169 -7.47857e-18)
(8.94956 0.271366 4.41302e-17)
(8.11945 0.103011 -2.81382e-17)
(8.00804 0.0653355 2.34904e-17)
(8.61355 0.248253 -2.13698e-17)
(8.81612 0.424768 -2.18864e-17)
(8.99959 0.261136 0)
(8.54369 0.219034 -9.13397e-18)
(8.82979 0.212297 0)
(9.27521 -0.193629 -2.07483e-17)
(9.32396 -0.206845 5.24761e-17)
(9.4359 0.541465 2.41622e-17)
(9.08404 -0.171043 4.32659e-18)
(9.15755 0.498512 1.21549e-17)
(9.01666 0.215282 1.4818e-17)
(9.05721 -0.139643 -1.18003e-17)
(9.02885 -0.15767 0)
(8.65186 -0.387412 0)
(8.64863 -0.464433 8.00897e-17)
(9.0055 0.0384403 -2.88073e-17)
(9.02133 0.040885 2.56582e-17)
(9.13737 0.072914 0)
(8.77708 0.0423066 0)
(9.07332 -0.205454 -6.87266e-18)
(9.10153 -0.157702 -2.22709e-18)
(9.09166 -0.178686 0)
(6.07912 -0.98305 -9.85832e-18)
(6.16457 -0.802056 8.08966e-18)
(9.58866 -0.0691581 -1.58824e-17)
(8.64834 -0.00149257 -2.0932e-17)
(8.44052 -0.0271298 0)
(8.52329 0.030309 -7.41361e-17)
(4.47059 -0.566833 8.86597e-18)
(9.53688 -0.334326 0)
(9.00573 0.184259 2.98018e-17)
(6.70207 -1.15132 3.63463e-17)
(6.79238 -0.974101 -1.86556e-17)
(8.95743 0.18008 4.2725e-17)
(6.72912 -0.650396 0)
(6.4649 -0.705734 0)
(8.51018 0.0815611 1.27696e-16)
(7.88652 -0.0616459 3.19519e-17)
(9.44557 -0.32271 2.57343e-19)
(9.39481 -0.296314 -2.57347e-19)
(8.88747 -0.0856971 -1.11369e-17)
(8.97766 -0.104221 -1.80896e-17)
(8.80994 -0.0946875 1.16817e-17)
(9.05223 0.291069 -6.54001e-18)
(8.68147 0.170831 -6.97008e-17)
(8.62338 0.175335 6.82881e-17)
(9.08239 0.218329 2.14479e-17)
(9.09315 0.252312 -1.85043e-19)
(8.97839 -0.252271 -5.98938e-18)
(9.09373 -0.157805 2.99896e-18)
(9.02156 -0.221373 6.96027e-19)
(8.79722 0.210604 -2.66349e-17)
(8.8253 0.163304 5.86637e-19)
(8.81718 0.176206 -2.29414e-17)
(7.10565 -0.399322 -3.40038e-17)
(7.17212 -0.00972847 -2.64953e-17)
(6.9824 -0.0790012 3.81506e-17)
(5.36391 -1.7679 0)
(8.76158 -0.376792 3.2719e-18)
(9.81942 0.275324 -5.56857e-17)
(5.43642 -1.97457 -7.52847e-18)
(8.85194 -0.357563 0)
(8.5202 0.265259 -4.18198e-17)
(8.47143 0.227933 0)
(9.05838 0.273728 7.95902e-18)
(8.09226 -0.139613 0)
(7.80871 -0.113208 -2.75987e-17)
(8.00271 -0.163744 0)
(8.58708 0.155198 -7.80356e-17)
(8.53209 0.176216 -1.67582e-18)
(8.48776 0.18465 1.9673e-17)
(8.12949 -0.105135 8.37708e-17)
(3.0448 0.263931 0)
(2.78946 0.130896 -5.90374e-17)
(9.19296 0.375678 -3.31973e-17)
(9.18515 0.284974 6.38718e-18)
(9.17111 0.31598 0)
(8.06962 -0.247289 0)
(8.78798 0.73837 1.03992e-17)
(9.04245 -0.025674 1.20622e-17)
(9.08136 -0.00394363 1.13311e-17)
(6.16857 -1.90026 5.9907e-18)
(6.12793 -1.70568 1.16805e-17)
(6.00838 -1.72003 -1.15474e-17)
(9.68277 0.0244643 1.10199e-17)
(8.90134 -0.0589703 1.91331e-17)
(8.76584 -0.0925741 0)
(8.93517 -0.0906797 0)
(9.07495 -0.081173 0)
(9.05651 0.184381 2.91595e-19)
(9.24173 -0.0133076 -9.76284e-18)
(10.9594 0.13416 -8.05745e-18)
(5.72569 -2.32863 1.58411e-17)
(10.032 0.228866 0)
(9.04068 0.121964 3.35244e-17)
(8.76078 0.13876 3.57542e-17)
(10.0855 -0.172019 1.56441e-17)
(6.21127 -2.83743 0)
(6.12896 -2.64612 -8.79605e-18)
(5.98618 -2.66725 1.56444e-17)
(8.52835 1.17337 -1.18841e-17)
(8.99735 0.0183111 0)
(9.03173 -0.0361408 1.08402e-18)
(5.62803 -1.86118 -5.91526e-18)
(5.79858 -2.09226 0)
(5.69523 -2.09715 1.00772e-17)
(5.65918 -1.99956 2.59304e-18)
(8.92342 0.104539 -4.87062e-18)
(9.00769 0.09259 -1.87009e-17)
(9.48865 -0.297768 0)
(9.50825 -0.249868 -9.04118e-17)
(9.54198 -0.199928 0)
(5.62972 -1.63308 0)
(5.74005 -1.49941 0)
(10.4358 0.0401333 8.81015e-18)
(8.64998 0.938721 7.68643e-18)
(9.07216 0.170201 0)
(9.08666 0.149274 -1.04382e-17)
(6.37521 0.0345833 1.03596e-17)
(9.27211 0.0249712 -1.31526e-18)
(10.3831 -0.0618123 -5.59324e-17)
(9.62094 -1.10288 -7.7294e-18)
(9.59657 -1.03435 2.75899e-18)
(8.70123 0.198197 -6.98732e-18)
(8.74645 0.186586 2.56153e-17)
(5.99902 -1.39303 -2.39856e-17)
(5.9563 -1.56117 1.19507e-17)
(9.47242 -0.0196572 -1.09653e-17)
(9.82441 -0.0641782 -1.08052e-17)
(9.09844 0.283408 2.17352e-18)
(9.10599 0.318089 -6.4937e-18)
(9.1331 0.332144 7.25068e-18)
(8.65476 1.12326 0)
(8.67784 1.08619 7.15278e-18)
(9.06269 0.173867 -1.34556e-18)
(9.05024 0.173332 2.02711e-18)
(9.07757 0.204883 2.89754e-19)
(9.07332 0.218485 -3.92566e-18)
(9.83261 -1.28085 0)
(10.0317 -1.43473 -5.56636e-18)
(9.18888 0.0964029 4.40531e-17)
(10.3523 0.187272 3.25629e-17)
(10.3488 0.239483 0)
(6.70565 -3.87887 1.22896e-17)
(7.42217 -2.47153 -2.27604e-18)
(10.022 -2.53801 3.29607e-19)
(9.5499 -1.28258 1.60566e-19)
(11.1202 -1.85278 0)
(5.0269 0.44977 0)
(9.66311 -1.40376 1.1758e-19)
(9.88906 -2.62532 0)
(9.50687 1.14619 6.87085e-20)
(7.31005 -1.45622 5.97102e-19)
(10.1551 -2.46806 0)
(10.1453 -2.46728 6.47257e-19)
(7.00483 1.45578 0)
(9.34503 -2.68954 -7.32105e-19)
(8.47574 -2.62522 0)
(7.85159 0.491926 -4.25618e-21)
(7.45045 0.696381 0)
(9.11407 0.612008 4.5314e-18)
(7.83903 0.643577 1.88624e-18)
(8.15956 -2.10251 -5.55517e-18)
(9.7882 2.2917 1.73899e-18)
(10.1768 -2.40818 -1.73643e-18)
(9.09264 0.657788 0)
(10.6357 -1.27343 -5.4656e-19)
(7.02796 -2.90909 -1.18358e-18)
(10.2727 -2.42189 2.38235e-19)
(10.2668 -2.42086 -2.35185e-19)
(8.35974 1.52975 0)
(8.12578 0.767731 0)
(8.1131 0.816274 1.37515e-18)
(10.2059 -2.41645 0)
(4.78967 -0.373368 -1.66508e-17)
(6.84605 0.517723 -1.22588e-18)
(9.98834 -2.57523 6.85432e-19)
(8.38909 1.72292 7.83393e-19)
(8.64653 0.546844 -1.74233e-19)
(8.93888 -0.857421 -1.50319e-20)
(10.3624 -1.57217 -7.01854e-18)
(10.1988 -2.41595 7.61044e-19)
(7.42916 1.11636 -1.56318e-18)
(10.7069 -1.95309 0)
(10.6309 -1.95643 3.74084e-18)
(3.20273 0.5391 0)
(9.93983 -2.57289 2.26817e-21)
(9.99732 -2.54671 0)
(8.93617 -2.22576 1.85955e-20)
(9.41937 0.95444 2.19101e-19)
(4.13663 -0.18302 4.26005e-17)
(9.61029 1.51351 4.00427e-19)
(8.73655 1.3979 0)
(9.09057 2.07124 -1.80675e-21)
(9.11895 1.92717 -4.62483e-19)
(7.44682 -3.51513 -1.8686e-18)
(5.35888 1.81668 5.15982e-18)
(10.1869 -2.40698 4.54177e-19)
(10.1886 -2.41111 -1.32151e-18)
(10.239 -2.39541 0)
(6.86166 1.29259 0)
(7.75348 0.901723 -8.36444e-20)
(10.0849 -2.48915 1.43722e-18)
(3.98487 -1.84219 -2.51641e-20)
(8.09996 0.682386 -1.73695e-20)
(8.73382 0.608849 1.14319e-17)
(9.30594 1.11449 0)
(8.43962 0.613445 -3.19641e-19)
(7.86952 0.396215 0)
(4.10634 -2.09721 -2.27462e-18)
(8.59829 -4.27096 -7.15063e-20)
(9.75889 2.07769 1.05969e-18)
(8.20082 -3.08949 0)
(8.05383 0.476955 0)
(6.19523 1.58137 -3.38917e-18)
(8.89652 -0.570858 6.31499e-18)
(7.18547 -0.45319 1.47469e-17)
(8.7382 -2.34526 3.60867e-18)
(8.0764 -2.3842 -1.01179e-18)
(9.45645 1.11839 -2.44787e-19)
(8.40771 -1.2829 5.78986e-20)
(7.34743 0.877668 -2.74728e-20)
(9.08206 1.22651 -7.06678e-20)
(4.39833 -3.52021 2.10331e-18)
(8.55394 -1.46791 0)
(9.91457 1.48067 -5.92273e-19)
(7.08318 -2.40894 6.53416e-20)
(9.78244 -2.64539 0)
(10.2617 -2.37456 0)
(8.59389 1.3666 -2.67899e-18)
(8.72368 1.54282 6.8741e-19)
(8.45751 -0.796138 -3.17329e-19)
(5.86415 0.730252 -1.36994e-18)
(10.5979 -1.27387 -4.87961e-19)
(9.41124 -1.13184 1.05959e-17)
(10.3509 -0.972793 -5.18765e-19)
(8.53212 -2.61979 1.17334e-18)
(5.04917 -0.909235 -2.6947e-17)
(5.04226 -0.693268 0)
(8.56395 -0.979918 3.88381e-19)
(8.64658 1.02446 0)
(8.90742 0.542536 0)
(10.2953 -2.39258 0)
(10.3062 -2.39907 -9.51259e-19)
(8.55407 -2.59001 -3.95143e-18)
(8.57658 -2.60798 -3.20148e-18)
(5.93221 -2.24644 1.28489e-18)
(7.01732 -2.38242 6.55318e-18)
(9.17972 1.40751 -2.07992e-19)
(10.1176 -2.43622 4.3563e-19)
(10.1267 -2.4399 -1.22744e-18)
(9.90443 -2.5883 -5.48467e-19)
(9.82921 -2.61436 -1.18859e-18)
(10.1239 -2.45014 -4.28617e-19)
(8.67857 -1.17012 0)
(8.91128 -0.756202 3.40965e-18)
(8.90695 -0.636463 -1.6312e-17)
(9.04365 1.86278 0)
(8.89605 1.76698 4.30988e-20)
(9.55928 2.01012 0)
(8.5789 1.4082 -1.09902e-18)
(8.57768 1.37844 1.33553e-18)
(9.02275 1.20115 6.08926e-20)
(10.0365 -2.52859 0)
(10.0706 -2.50113 -2.89229e-19)
(7.42283 -3.58737 2.18381e-18)
(6.63074 1.19045 2.53422e-18)
(6.68582 1.25932 1.62564e-19)
(10.2639 -2.41056 -1.27757e-18)
(9.84422 -2.62385 0)
(8.91794 0.944358 -6.8244e-21)
(7.80764 0.516138 4.23072e-19)
(9.05207 1.3412 0)
(7.78976 -3.96623 0)
(9.80102 1.41971 4.43707e-19)
(8.20243 0.459084 -3.92181e-21)
(8.12272 1.39233 0)
(8.86634 -1.74348 -7.44572e-18)
(8.30665 1.30088 -7.84652e-18)
(7.88503 0.493429 -2.74414e-19)
(7.97127 0.498441 -2.54646e-19)
(10.1109 -2.37367 2.70662e-18)
(10.1003 -2.39138 0)
(10.1347 -2.37094 -3.01575e-18)
(8.58968 -4.41948 -5.64998e-20)
(6.90378 0.529704 7.94307e-19)
(10.7325 -2.41014 -1.20065e-17)
(10.6864 -2.25937 6.87923e-18)
(9.01841 1.08578 0)
(8.40614 0.784832 1.35461e-19)
(7.39191 -2.4479 -1.0015e-18)
(8.32086 1.77829 0)
(9.46567 -2.65773 0)
(9.63435 -2.63099 -2.07836e-18)
(10.5615 -2.32016 -6.13474e-18)
(7.46741 1.84502 2.75798e-18)
(8.76391 1.19266 -9.71476e-19)
(8.70539 1.17723 8.64646e-19)
(5.34861 0.0180312 1.79263e-19)
(5.38551 -0.191302 0)
(5.17636 -0.0548971 -7.29696e-18)
(7.37663 0.834952 1.99992e-19)
(9.51072 -2.4138 -7.73261e-18)
(9.2735 0.907023 -5.91109e-20)
(8.14675 0.680655 1.49951e-20)
(8.24249 0.661274 0)
(8.7841 0.587785 1.84589e-17)
(8.60609 0.762752 1.6877e-17)
(8.56685 0.401943 3.0872e-20)
(10.1657 -2.28965 4.87112e-18)
(10.1904 -0.475822 6.00343e-19)
(8.13532 -2.59871 2.86363e-18)
(8.11005 -2.56476 2.38774e-18)
(8.63954 0.700357 0)
(4.80237 -0.189159 -4.05172e-18)
(4.77199 -0.275033 -8.96919e-20)
(8.7936 -2.64342 6.91927e-19)
(8.84167 -2.64273 3.72414e-18)
(8.53079 -2.6324 -1.45496e-18)
(10.0349 -2.33427 -1.32659e-18)
(8.25513 0.350475 -2.19618e-19)
(8.04214 -0.704161 0)
(8.46716 0.986201 -1.6577e-18)
(10.5471 -2.28131 9.48803e-18)
(10.4803 -2.18683 5.64255e-18)
(8.77975 1.65238 -3.84987e-20)
(8.83073 1.71619 0)
(8.70716 1.66931 3.94303e-19)
(8.16945 1.11783 0)
(8.06766 1.05526 0)
(9.3414 1.44814 -3.87423e-19)
(9.23869 1.42007 2.29845e-19)
(9.27125 1.38175 0)
(9.29011 1.49535 4.82327e-19)
(10.3227 -0.791893 0)
(8.69785 -2.61014 0)
(8.33794 -2.60707 5.05825e-18)
(8.44256 -2.6119 9.26071e-19)
(8.5983 -2.62373 0)
(9.29737 -1.70406 -2.09688e-19)
(10.382 -0.969109 -5.41019e-19)
(7.4224 0.438291 1.31487e-19)
(6.36337 1.36188 3.98175e-18)
(6.52378 1.37512 4.03622e-19)
(6.48548 1.31383 2.34731e-18)
(6.40718 1.44969 -4.00684e-19)
(10.2083 -2.32811 4.97051e-20)
(8.11233 1.24248 -5.08742e-18)
(7.99598 1.18426 0)
(8.71926 0.816647 -1.78879e-19)
(6.29823 1.37418 -3.57081e-18)
(8.78755 1.22072 -9.68794e-19)
(8.76186 1.28773 5.57844e-18)
(6.77823 0.56299 0)
(9.76342 1.72693 8.83433e-19)
(9.9024 1.83083 6.17013e-19)
(10.1719 -2.38189 1.46392e-18)
(10.1864 -2.38055 -2.55745e-18)
(10.164 -2.39193 -1.7206e-18)
(10.1155 -2.41421 8.89281e-19)
(10.1461 -2.39806 0)
(8.70106 0.945517 -2.92645e-19)
(8.78971 0.938983 -1.34006e-19)
(8.77361 1.00805 0)
(6.31587 -2.28328 0)
(7.31211 -2.45382 0)
(10.2915 -2.35807 0)
(7.73743 -2.4939 8.53743e-21)
(9.24903 -2.64964 2.20939e-18)
(10.2555 -2.40037 0)
(10.266 -2.40415 0)
(4.83999 -0.444162 8.55303e-18)
(10.0577 -2.52213 6.76093e-19)
(10.0729 -2.50982 0)
(7.31688 1.26205 -3.26773e-18)
(9.91226 -2.43563 -3.02805e-18)
(10.378 -2.35551 5.3277e-18)
(10.3641 -2.37544 0)
(9.95609 -2.47769 0)
(8.09249 -2.50875 0)
(9.11868 1.70408 0)
(8.97806 1.63308 -2.03696e-20)
(7.61831 1.51402 0)
(7.56847 1.43144 -2.75749e-18)
(3.47006 -2.4858 0)
(10.234 -2.32169 -5.73548e-18)
(8.60149 1.16724 1.2546e-18)
(8.23899 0.818079 1.53852e-18)
(8.30575 0.818354 5.91812e-19)
(10.0243 -2.49759 0)
(8.72806 -2.65334 0)
(8.48375 1.37274 -5.12989e-18)
(8.50639 1.37997 2.44604e-18)
(9.87789 -2.46542 0)
(9.68884 1.42067 3.86429e-19)
(9.6517 1.31095 -1.01461e-19)
(9.12532 -2.6744 0)
(10.318 -2.40229 0)
(10.3492 -2.40609 1.98908e-18)
(10.2056 -2.40769 5.02661e-19)
(10.1989 -2.41034 -3.08626e-19)
(10.2099 -2.40259 2.12304e-21)
(10.2618 -2.3649 -1.66484e-18)
(10.2741 -2.35379 0)
(10.248 -2.35473 1.39052e-20)
(10.3744 -2.10188 9.13697e-20)
(10.3126 -2.06349 6.07711e-18)
(10.3619 -2.06107 1.25835e-17)
(10.3353 -2.12983 0)
(9.95386 -2.55926 1.25943e-18)
(9.9853 -2.54537 1.03541e-18)
(10.1649 -2.41259 0)
(10.1442 -2.42954 1.03272e-18)
(10.1498 -2.41756 -4.20969e-19)
(9.54955 0.834076 -1.88544e-17)
(9.51292 -2.21162 6.93679e-19)
(9.53954 -2.08433 1.5849e-18)
(9.60145 -2.13098 3.36354e-18)
(9.1353 1.48188 -2.73214e-20)
(9.16649 1.5533 -1.92137e-19)
(9.0763 1.49641 6.85096e-20)
(10.2016 -2.27167 -7.84632e-18)
(10.2431 -2.39579 -5.18502e-19)
(10.2509 -2.39878 0)
(9.39975 -2.60684 3.62604e-18)
(9.46003 -2.60904 -3.64727e-18)
(4.04884 -1.6171 -8.48341e-19)
(4.99484 -0.765534 -1.22601e-17)
(5.00798 -0.854998 1.25768e-17)
(8.20968 1.13424 5.52504e-19)
(8.16884 0.471403 -2.67844e-19)
(8.73635 -0.777887 1.67722e-17)
(8.71536 -0.603086 -2.63539e-17)
(7.64878 1.73888 1.81086e-18)
(7.7314 1.84976 -4.3571e-18)
(7.98369 0.598452 -3.6669e-20)
(7.93837 0.656392 9.50436e-19)
(7.98636 0.637319 -2.59674e-19)
(8.74916 1.29659 8.0779e-19)
(8.73243 1.34886 4.14787e-19)
(8.74998 -2.58974 8.70916e-18)
(8.05904 1.78118 0)
(7.95849 1.86134 -2.97128e-18)
(9.79462 -1.73257 -9.60172e-19)
(9.67965 -1.65739 -6.88077e-18)
(9.78266 -1.65106 0)
(9.97211 -2.49351 0)
(10.002 -2.4859 0)
(9.96124 -2.51249 0)
(10.4563 -2.3485 5.4676e-18)
(9.48497 -1.20039 0)
(8.39837 0.717991 0)
(8.37799 0.762088 -8.37455e-20)
(10.1304 -2.46851 5.39312e-19)
(10.0996 -2.48284 -5.12179e-19)
(8.65977 1.6385 0)
(8.65984 1.587 -1.18217e-18)
(10.5616 -2.0902 0)
(10.6585 -2.20224 1.01452e-19)
(9.74395 -2.52615 0)
(9.83696 -2.51026 -3.60528e-18)
(9.79392 -2.50904 0)
(9.16626 0.988718 0)
(9.4455 -1.48807 -4.68016e-18)
(8.95448 0.87344 0)
(8.91688 0.866372 7.68122e-20)
(8.93892 0.847668 -1.12316e-19)
(8.92996 0.901176 -4.11238e-20)
(8.6997 1.21262 0)
(7.63248 0.743575 0)
(5.02357 -0.565011 -2.74144e-17)
(9.90188 -2.52203 0)
(9.93237 -2.52147 -1.87548e-18)
(8.22091 0.77833 0)
(8.16824 0.760201 0)
(8.26076 0.734521 -3.94112e-19)
(8.85668 1.24021 3.29245e-19)
(8.77531 1.27167 0)
(8.78707 1.20839 -3.77913e-19)
(8.83044 1.29171 -1.90803e-19)
(7.82982 1.79023 3.63971e-19)
(7.89853 1.7041 -1.01574e-18)
(7.84065 1.70703 8.14293e-19)
(7.88107 1.80708 3.27227e-18)
(10.2158 -2.4003 -9.68353e-19)
(10.2251 -2.39844 0)
(8.48648 1.07736 -4.6289e-19)
(8.45367 1.11266 0)
(8.45807 1.03498 1.90025e-18)
(9.69319 -0.741876 -6.78774e-17)
(8.92625 0.721122 1.18893e-19)
(8.84685 0.91201 -2.22677e-19)
(8.867 0.979642 0)
(8.88794 0.941727 0)
(8.83029 0.939502 0)
(8.94784 0.721816 -1.16856e-19)
(8.98957 0.743472 -1.23063e-19)
(8.16446 1.25341 7.36047e-18)
(6.81557 0.049399 1.95875e-17)
(8.66193 -2.3883 -1.93339e-18)
(8.30735 -2.40304 1.95818e-18)
(9.10206 0.49196 -1.1016e-20)
(7.87982 1.19266 9.8301e-19)
(7.832 1.12729 0)
(7.95538 1.16225 -2.4812e-18)
(8.29891 -0.880388 -1.07821e-17)