/*--------------------------------*- C++ -*----------------------------------*\
  =========                 |
  \\      /  F ield         | OpenFOAM: The Open Source CFD Toolbox
   \\    /   O peration     | Website:  https://openfoam.org
    \\  /    A nd           | Version:  6
     \\/     M anipulation  |
\*---------------------------------------------------------------------------*/
FoamFile
{
    version     2.0;
    format      ascii;
    class       volScalarField;
    location    "900";
    object      nuTilda;
}
// * * * * * * * * * * * * * * * * * * * * * * * * * * * * * * * * * * * * * //

dimensions      [0 2 -1 0 0 0 0];

internalField   nonuniform List<scalar> 
29874
(
0.251649
0.207291
0.121574
0.155394
0.178722
0.241578
0.217332
0.141058
0.152904
0.141856
0.268113
0.258086
0.182145
0.262929
0.266487
0.28341
0.175365
0.277562
0.118827
0.141928
0.14066
0.143785
0.140543
0.153394
0.144478
0.177056
0.219977
0.14384
0.233467
0.23385
0.22955
0.195445
0.195058
0.220634
0.151491
0.158001
0.142253
0.162893
0.164088
0.200335
0.139908
0.139657
0.145187
0.133087
0.19126
0.160698
0.178061
0.244984
0.239042
0.239834
0.193971
0.291487
0.267773
0.27925
0.199432
0.192668
0.134871
0.169833
0.166091
0.172035
0.163761
0.149105
0.147479
0.167408
0.123467
0.189817
0.238404
0.17641
0.262129
0.283362
0.154934
0.148352
0.144379
0.109379
0.285172
0.230954
0.232156
0.226495
0.182931
0.164756
0.192382
0.110998
0.138354
0.14662
0.095339
0.109366
0.14878
0.140869
0.188016
0.163173
0.0700995
0.139509
0.138648
0.145232
0.13428
0.138266
0.135926
0.098192
0.0611587
0.108341
0.150867
0.138576
0.138822
0.167696
0.211656
0.0632515
0.0755008
0.154656
0.158865
0.144435
0.074739
0.195851
0.205235
0.138556
0.138555
0.13881
0.134807
0.150746
0.000277486
0.142249
0.139799
0.178235
0.129814
0.115139
0.136416
0.138639
0.15306
0.146943
0.142084
0.135056
0.14001
0.137106
0.150503
0.143218
0.143575
0.143285
0.146256
0.135388
0.143778
0.233535
0.200226
0.171723
0.278163
0.169534
0.14949
0.152047
0.170739
0.182883
0.139762
0.276744
0.246833
0.240891
0.294627
0.12232
0.13525
0.140115
0.150247
0.161901
0.183638
0.185167
0.166877
0.181103
0.222238
0.163065
0.215953
0.190089
0.17188
0.150235
0.149363
0.15438
0.193997
0.173009
0.164464
0.0922477
0.0807672
0.154999
0.148085
0.000296629
0.147831
0.145051
0.000246451
0.000224617
0.160496
0.143103
0.141003
0.158737
0.138328
0.138677
0.140693
0.138639
0.138519
0.190263
0.144936
0.13947
0.170653
0.143278
0.141875
0.154921
0.000461762
0.000457606
0.152189
0.150598
0.176741
0.163716
0.141038
0.138963
0.140625
0.216547
0.146736
0.140041
0.142443
0.145685
0.133854
0.141701
0.142966
0.146166
0.14564
0.142573
0.146327
0.152963
0.235787
0.197251
0.197855
0.16234
0.139705
0.145998
0.151419
0.149338
0.161368
0.139106
0.139982
0.14002
0.137245
0.130381
0.144533
0.146572
0.135316
0.170686
0.159415
0.196022
0.198748
0.00665742
0.0421298
0.101922
0.107576
0.0377875
0.0356963
0.0536865
0.131771
0.0556854
0.0823242
0.127053
0.0956003
0.0548519
0.103494
0.0514242
0.0628726
0.000555596
0.0533085
0.0586774
0.0477896
0.0534036
0.0632219
0.0556852
0.0578634
0.0569432
0.0582612
0.115518
0.111954
0.000336922
0.0426538
0.0404329
0.114095
0.0887448
0.108523
0.0801329
0.0332717
0.000733712
0.103981
0.0916756
0.0878538
0.12667
0.126522
0.121974
0.121693
0.0740865
0.125248
0.125403
0.0522504
0.055788
0.08472
0.0885689
0.0899449
0.0552232
0.0559267
0.0663094
0.0651392
0.0417308
0.104395
0.105985
0.115467
0.0447924
0.117365
0.0416126
0.0916655
0.0893748
0.0455035
0.127714
0.0375103
0.00385564
0.055764
0.056223
0.03718
0.0398232
0.0340686
0.059696
0.0614877
0.0887256
0.1142
0.112018
0.0580843
0.0621424
0.0405423
0.045854
0.11054
0.108478
0.111212
0.138256
0.0650259
0.0659737
0.136093
0.136527
0.0483797
0.0457407
0.0582882
0.0500836
0.111358
0.112813
0.112975
0.111338
0.0411692
0.0300162
0.0442061
0.0480313
0.0462258
0.0459405
0.116343
0.116431
0.0597273
0.0907273
0.128299
0.124384
0.0685831
0.0592356
0.0786868
0.105499
0.0529198
0.053306
0.108268
0.000333326
0.056397
0.0277706
0.0581477
0.0453016
0.0441206
0.088513
0.0894004
0.0870768
0.132333
0.0605348
0.0561181
0.0596645
0.0563741
0.139554
0.131277
0.0627718
0.0705176
0.0687148
0.0629326
0.0726499
0.0395638
0.0395921
0.120525
0.131305
0.110536
0.110459
0.132542
0.113586
0.115159
0.11234
0.0592039
0.0578765
0.0383677
0.0566077
0.0578949
0.0577421
0.0568143
0.0582979
0.0559898
0.138103
0.0576363
0.0584582
0.058515
0.126797
0.122672
0.130464
0.0477254
0.0506205
0.0476914
0.0502043
0.0896562
0.0821211
0.0853709
0.0870437
0.136848
0.0280841
0.0352694
0.0413606
0.0375678
0.045708
0.0453456
0.0428162
0.0816238
0.0698013
0.0863923
0.0828271
0.081034
0.0886108
0.0873264
0.0874171
0.0543573
0.0543956
0.0560501
0.052837
0.0438702
0.0551128
0.0516512
0.0410953
0.0470499
0.0690505
0.0768276
0.0709515
0.0738164
0.0521482
0.0487362
0.139404
0.140197
0.138112
0.136811
0.140587
0.0518837
0.0551294
0.0491285
0.0794202
0.0899994
0.0844123
0.0532729
0.0542751
0.0554289
0.05253
0.0589059
0.0583474
0.0586212
0.0583352
0.0614401
0.0614812
0.0583512
0.0775708
0.15099
0.144061
0.147618
0.148154
0.0657891
0.113618
0.104984
0.103947
0.107323
0.0485205
0.0447139
0.0521923
0.0909624
0.061075
0.0673114
0.0646268
0.0633991
0.13822
0.0433772
0.0408138
0.0405888
0.0432669
0.16585
0.000255717
0.137208
0.193835
0.000466611
0.138569
0.16804
0.139511
0.13952
0.139551
0.170121
0.130308
0.138074
0.138826
0.114908
0.134739
0.132985
0.138468
0.136641
0.133482
0.138522
0.138167
0.116373
0.138719
0.138479
0.00341049
0.139161
0.142202
0.000238399
0.138383
0.138818
0.140417
0.115265
0.140037
0.132242
0.133908
0.135207
0.139343
0.13207
0.134277
0.127206
0.152265
0.128708
0.12429
0.133801
0.129401
0.138811
0.130587
0.127526
0.121648
0.0999665
0.0994574
0.00024823
0.0052112
0.157451
0.166294
0.138509
0.103208
0.105902
0.139323
0.133951
0.139823
0.139625
0.138298
0.06059
0.0721254
0.0738686
0.123693
0.139223
0.224107
0.126473
0.107788
0.104264
0.106026
0.13868
0.00975759
0.131252
0.132633
0.100568
0.106568
0.0389872
0.148771
0.140514
0.235262
0.203016
0.13832
0.138524
0.138514
0.0955276
0.158157
0.146285
0.128438
0.126627
0.145527
0.118761
0.120501
0.116365
0.139816
0.127155
0.137271
0.133812
0.158601
0.147566
0.0748031
0.0693401
0.118417
0.119884
0.143351
0.140248
0.000723206
0.149721
0.181871
0.142227
0.140362
0.140013
0.139302
0.139836
0.126706
0.134427
0.139203
0.0556896
0.0555865
0.0593851
0.139095
0.138214
0.138411
0.138016
0.139663
0.143258
0.147549
0.115403
0.0374752
0.1395
0.138135
0.145607
0.153693
0.0496133
0.0449908
0.122016
0.118961
0.161239
0.218794
0.159299
0.177548
0.0529546
0.0551996
0.110548
0.114401
0.117794
0.0850733
0.0912668
0.137857
0.137677
0.137405
0.170605
0.14103
0.138784
0.138735
0.133988
0.135769
0.139108
0.138577
0.132672
0.133119
0.13103
0.139754
0.136903
0.145623
0.149221
0.000431878
0.00408079
0.117327
0.11331
0.122326
0.06351
0.059227
0.167997
0.170244
0.158055
0.00558614
0.00655953
0.0834655
0.0433786
0.13572
0.0426117
0.0740187
0.0327731
0.0496235
0.0619533
0.0884744
0.0876736
0.0690188
0.0860937
0.0858392
0.0938628
0.094758
0.0860784
0.040875
0.0852855
0.0477993
0.0652568
0.10221
0.101707
0.0640749
0.0641255
0.0636638
0.0283915
0.00303125
0.0308203
0.00552823
0.00346726
0.070129
0.0516293
0.0517855
0.0764442
0.0354523
0.0524151
0.0248689
0.0574473
0.0388745
0.0864789
0.0526518
0.0517391
0.0621276
0.0384539
0.0555804
0.0238996
0.0285542
0.0626526
0.0277527
0.0614579
0.0633656
0.0927988
0.105473
0.038673
0.0547692
0.0960321
0.0465954
0.0915328
0.0917419
0.0669319
0.0665562
0.0519673
0.0519402
0.0240016
0.0871725
0.0862277
0.0147191
0.0759462
0.029451
0.00153855
0.0649129
0.0996997
0.0441535
0.00152001
0.00134586
0.101941
0.085936
0.0149442
0.00417838
0.0909357
0.0916442
0.0548607
0.0559634
0.0574755
0.0897124
0.100976
0.0498486
0.0385809
0.0403314
0.068509
0.0823725
0.0815942
0.0353949
0.0321334
0.0301503
0.0298268
0.0768413
0.0632606
0.0504805
0.0543527
0.0358713
0.0599109
0.0116392
0.0538388
0.0568304
0.0806665
0.0885625
0.0460601
0.073419
0.0390928
0.0420555
0.0778936
0.0677644
0.0653636
0.0788368
0.0492833
0.0653016
0.0843184
0.0561158
0.045087
0.0435265
0.0758726
0.0776425
0.0932683
0.0101852
0.0469343
0.00140032
0.0335248
0.0883439
0.104935
0.0577103
0.0536526
0.0716313
0.0579454
0.0505898
0.0708881
0.00917265
0.0486635
0.0806225
0.0713949
0.118444
0.118361
0.0351661
0.0355978
0.099735
0.0633592
0.0837486
0.0594995
0.0556365
0.0843653
0.0647776
0.0173227
0.0488335
0.0302606
0.047716
0.0795625
0.0851849
0.0860866
0.0879031
0.0236759
0.0266243
0.0906163
0.0291668
0.0296893
0.0666715
0.0649664
0.0732817
0.0605261
0.0594558
0.0858707
0.0688454
0.0746746
0.0344723
0.0850009
0.085065
0.0853797
0.0555679
0.0530059
0.0476465
0.0441943
0.105142
0.0770337
0.0781058
0.0339173
0.0326225
0.0320207
0.0633626
0.101431
0.100752
0.0929877
0.103401
0.0680813
0.0713049
0.0600167
0.0598851
0.0880661
0.0555205
0.0337195
0.0318316
0.0914793
0.0771172
0.0459583
0.127235
0.0413418
0.0397016
0.041194
0.0452025
0.035679
0.0792873
0.0790572
0.0193145
0.0843677
0.0382938
0.0850907
0.0835075
0.085543
0.0814023
0.0536439
0.0559283
0.032626
0.0857519
0.0866581
0.0834861
0.0826519
0.0841395
0.0505482
0.0779622
0.0101408
0.0688641
0.0832489
0.0844312
0.0215704
0.0206542
0.0672477
0.0551592
0.0900681
0.098137
0.0854095
0.0806411
0.0417413
0.0924513
0.0793299
0.0170909
0.0571582
0.0949909
0.0954163
0.0948877
0.0946983
0.0979535
0.0789504
0.0252014
0.0873369
0.0911259
0.0436056
0.061059
0.0576214
0.0454952
0.0377782
0.095234
0.0504686
0.0338443
0.029406
0.0309834
0.00520315
0.0586651
0.0583003
0.0603559
0.0244678
0.0667771
0.065788
0.101558
0.0561734
0.040694
0.0381682
0.0955636
0.0491468
0.0663276
0.0430644
0.0527674
0.126167
0.0950974
0.0816841
0.0751634
0.0925698
0.0934238
0.0953507
0.0679744
0.0273382
0.105698
0.100814
0.0152313
0.100453
0.034556
0.066949
0.0632161
0.0653119
0.0997933
0.0546241
0.053057
0.0539684
0.00414287
0.0433008
0.0347627
0.0205255
0.0158728
0.0777593
0.0992669
0.0610949
0.0633725
0.0610925
0.0484576
0.100389
0.0979594
0.0937237
0.0928842
0.0743404
0.0711524
0.0418345
0.0440115
0.040607
0.0593686
0.057615
0.041393
0.0908255
0.0916842
0.0618343
0.0638014
0.0471849
0.047199
0.00929733
0.00671404
0.0446802
0.0432005
0.0398373
0.115527
0.109604
0.0521822
0.0493172
0.0377079
0.0332053
0.0298722
0.0646155
0.0485236
0.0533896
0.0642793
0.0307806
0.096117
0.091819
0.101725
0.101124
0.0999636
0.0826709
0.10592
0.103248
0.0980156
0.064497
0.0324461
0.0339898
0.0278807
0.0775214
0.0587554
0.0507537
0.0580431
0.0582087
0.0810976
0.0819561
0.0816556
0.0661053
0.0559683
0.0571837
0.0712163
0.0689074
0.0812337
0.0805657
0.0612732
0.0548755
0.0566414
0.0814038
0.0842997
0.0456835
0.0434921
0.0669774
0.0661731
0.0665753
0.0664445
0.0649921
0.0672847
0.0633643
0.0885787
0.0615257
0.0980365
0.0593118
0.0353921
0.00107082
0.0631273
0.0500623
0.0489279
0.101929
0.100636
0.102387
0.0706634
0.0697647
0.0707345
0.04137
0.076942
0.0748541
0.0781759
0.0816077
0.0812605
0.0800843
0.0798576
0.0657894
0.0686108
0.100784
0.0117168
0.0812562
0.0326732
0.0915885
0.0717762
0.0393667
0.12226
0.0164169
0.0797306
0.080705
0.0613481
0.0469336
0.0451994
0.0485063
0.0865349
0.106391
0.103374
0.0889283
0.0851146
0.0601257
0.0610616
0.0574912
0.0469398
0.103777
0.103352
0.0393686
0.0412992
0.0820632
0.0344878
0.0321908
0.0328722
0.0727591
0.0703315
0.0699795
0.0116266
0.0159492
0.000635962
0.100827
0.0982038
0.101819
0.0790982
0.000769769
0.0586231
0.0565466
0.0892038
0.0583807
0.061127
0.0607497
0.0585603
0.0659121
0.0677358
0.0868974
0.0896102
0.0485602
0.0469586
0.0622785
0.0173754
0.0407033
0.0419583
0.000567444
0.102145
0.101485
0.103359
0.0936118
0.0308698
0.0289976
0.0318292
0.0119703
0.0315382
0.0295698
0.0685146
0.0672681
0.0811095
0.0937477
0.0935684
0.0929704
0.100555
0.0992109
0.0995462
0.0412598
0.102484
0.100919
0.0883768
0.0868144
0.087565
0.000528623
0.0465461
0.0618289
0.0898859
0.103748
0.101937
0.102452
0.103283
0.0965166
0.0965885
0.0417194
0.0370798
0.108543
0.000934527
0.0809455
0.0795006
0.0621699
0.0630505
0.0605388
0.00106768
0.0935212
0.0885829
0.000457285
0.000746617
0.00238659
0.0846224
0.0849415
0.084586
0.0546269
0.0345775
0.0372081
0.0961655
0.0762349
0.0694282
0.0705946
0.0685683
0.067555
0.0675674
0.0543451
0.000603532
0.0994466
0.0623637
0.0629981
0.0615287
0.037914
0.0373172
0.0916549
0.0923094
0.091472
0.0933197
0.0930725
0.0956106
0.0730885
0.000493133
0.0557469
0.0310046
0.106879
0.104068
0.0202116
0.018664
0.0582734
0.0583681
0.0690028
0.0665481
0.066494
0.0651648
0.0850706
0.0871185
0.0434209
0.0389473
0.0772211
0.000616037
0.000403856
0.068129
0.0571033
0.0555247
0.0138997
0.0142425
0.0696011
0.0325152
0.0310125
0.0504184
0.106171
0.102438
0.0936056
0.0909634
0.0212602
0.067963
0.0372024
0.083569
0.0838819
0.090163
0.0884707
0.0479834
0.0451848
0.000448548
0.00075099
0.062497
0.0828679
0.0818581
0.000353672
0.0787464
0.0801101
0.0956417
0.0475565
0.0443204
0.0458937
0.0870924
0.090904
0.0946289
0.09542
0.0963228
0.0962728
0.0345769
0.0243024
0.0929513
0.0942965
0.0947486
0.0923989
0.0795133
0.0775203
0.101682
0.100361
0.0873086
0.0850566
0.0925154
0.094692
0.0961702
0.00119946
0.00257876
0.0645803
0.0656608
0.0653063
0.0647216
0.0524411
0.0677291
0.0774398
0.0786956
0.085142
0.0705415
0.0705626
0.0408595
0.037783
0.0398011
0.0385135
0.100671
0.0981665
0.0967363
0.0986168
0.0704318
0.0724559
0.0702925
0.0724268
0.0567536
0.0584459
0.0596274
0.0558118
0.0454736
0.0483977
0.0450764
0.000625469
0.0011553
0.0536891
0.0535214
0.0699382
0.0673776
0.0681572
0.0691549
0.0300541
0.0296297
0.112692
0.114753
0.108024
0.0372786
0.0900384
0.0923612
0.0614508
0.0620872
0.062037
0.0616591
0.104315
0.0967453
0.0749215
0.0740251
0.0848227
0.085827
0.0553274
0.0536516
0.0532863
0.0556157
0.0908558
0.0913967
0.0906254
0.0915629
0.0219807
0.0200459
0.0875329
0.0894876
0.0892764
0.0875865
0.0879387
0.0637115
0.0633824
0.0645902
0.00162611
0.034319
0.0328543
0.0381383
0.0618293
0.062888
0.0595239
0.0649989
0.0921687
0.0381895
0.0394332
0.0614079
0.0625963
0.0608418
0.0613945
0.0644729
0.0637104
0.0496541
0.0668903
0.0668177
0.0664379
0.0673076
0.0542512
0.0528066
0.0546367
0.0567647
0.0587035
0.0568551
0.0734572
0.0751514
0.0759873
0.0724437
0.0831293
0.082468
0.0843881
0.110834
0.107999
0.109212
0.102044
0.0904828
0.0905279
0.090959
0.0900869
0.0651863
0.0647424
0.0643449
0.0654994
0.0356522
0.0388292
0.0409374
0.0619065
0.0646059
0.0621162
0.00679648
0.00705277
0.0591253
0.0431814
0.0223513
0.0265279
0.0487001
0.0461777
0.0444794
0.056866
0.0826813
0.0796711
0.0571222
0.059224
0.137149
0.137377
0.0214387
0.0604088
0.0593945
0.0607583
0.0543041
0.0515461
0.0227522
0.0460892
0.0455618
0.0232747
0.0291596
0.0784844
0.0771022
0.0757851
0.0760621
0.0768745
0.00888581
0.00874412
0.0590234
0.0559019
0.0586003
0.0554205
0.030077
0.0721773
0.0980284
0.0087309
0.0869978
0.0841225
0.0962177
0.0982202
0.0967515
0.0502657
0.045857
0.0515447
0.0604273
0.0599077
0.083403
0.0800428
0.0813521
0.103329
0.104934
0.104512
0.103671
0.0727595
0.0749261
0.0735465
0.0208838
0.0202527
0.0683961
0.0661268
0.0663311
0.0948676
0.0985733
0.0985681
0.0991016
0.0997079
0.0978699
0.0597573
0.0571758
0.0583338
0.0585124
0.0308831
0.043794
0.0424014
0.0855991
0.0827635
0.0841379
0.08439
0.0587041
0.058201
0.0596627
0.0572481
0.0813865
0.0823241
0.0817945
0.0704528
0.069212
0.0730358
0.0601604
0.0609776
0.0613929
0.0597728
0.0265306
0.0231795
0.0226996
0.0277164
0.0484186
0.0528711
0.04998
0.0501287
0.076828
0.0787505
0.0769356
0.0704121
0.0677585
0.0427336
0.0404275
0.0415988
0.0414372
0.0140552
0.0108986
0.0821225
0.0794332
0.0804386
0.0810129
0.0844931
0.086089
0.0821062
0.103614
0.118923
0.0866954
0.0888642
0.0656483
0.0634856
0.0647744
0.111286
0.107812
0.136565
0.0757565
0.0758218
0.0733994
0.0675124
0.0645058
0.066175
0.0455606
0.0451586
0.0465688
0.0441246
0.0931054
0.0932775
0.0921223
0.0568177
0.0573926
0.0583575
0.0447814
0.0428882
0.0432334
0.0468153
0.0465257
0.0527358
0.0554782
0.0546611
0.0533862
0.0502202
0.046206
0.0489438
0.0920951
0.0930057
0.0934944
0.0917335
0.0280232
0.070381
0.0478416
0.047899
0.0463838
0.0679172
0.0684774
0.0685642
0.0679661
0.0443783
0.0455698
0.0457973
0.0442605
0.068414
0.0673092
0.0710471
0.0116617
0.0102871
0.0119907
0.0651314
0.0968465
0.0942369
0.0956277
0.0893829
0.111852
0.111692
0.077123
0.0376093
0.0672095
0.0585002
0.0577118
0.0596017
0.059218
0.0582188
0.0674509
0.067454
0.0851727
0.0873915
0.0838749
0.0671124
0.0685819
0.0689353
0.0905173
0.0897658
0.0898369
0.0903897
0.0424884
0.0419429
0.0436452
0.040711
0.0299984
0.0246324
0.0273153
0.0893316
0.0883152
0.0889769
0.103151
0.101645
0.091848
0.0917759
0.0433356
0.039138
0.0401224
0.0308533
0.0295239
0.0304117
0.0856328
0.0732801
0.0755455
0.0751053
0.073719
0.0546459
0.0567514
0.101053
0.101088
0.101391
0.0930784
0.0644827
0.0651355
0.0646629
0.0999135
0.100636
0.099282
0.0434436
0.044916
0.0431938
0.0450387
0.0513165
0.0521495
0.0521014
0.0545911
0.0547789
0.0969615
0.0970799
0.0954662
0.0855256
0.0851451
0.0847538
0.0523948
0.0538489
0.054696
0.0518773
0.00667232
0.00796725
0.0525538
0.0333408
0.0460796
0.0328648
0.0897677
0.0891851
0.0922143
0.000818452
0.00881459
0.0572954
0.0588129
0.0588516
0.0896979
0.0890758
0.0568307
0.0167885
0.0806293
0.0803396
0.0814734
0.0794249
0.117749
0.117215
0.119242
0.0538976
0.0505159
0.052789
0.0712229
0.0721707
0.0889661
0.0866768
0.0872839
0.0884694
0.052891
0.0518988
0.0537847
0.0935768
0.0932635
0.0942999
0.092633
0.0291165
0.0290386
0.0507958
0.0472701
0.0564436
0.0592689
0.0572809
0.0576663
0.0587585
0.0298255
0.0240217
0.0639432
0.0625215
0.0634215
0.0627748
0.0580704
0.067941
0.0685368
0.0868564
0.100798
0.100574
0.100036
0.101484
0.0583764
0.0571661
0.0592586
0.0163997
0.0171092
0.0661531
0.0667814
0.0660444
0.068531
0.0697509
0.0674398
0.0706882
0.0726287
0.071937
0.102518
0.109862
0.10703
0.0995625
0.0989895
0.0983879
0.0664309
0.0698171
0.068485
0.0677031
0.0704572
0.0708729
0.0646945
0.0471081
0.0457884
0.0467816
0.0461896
0.133163
0.130961
0.051109
0.0499284
0.0746172
0.0759922
0.0767066
0.0737803
0.102407
0.100668
0.101852
0.101284
0.119797
0.0898166
0.0893765
0.0598576
0.0616882
0.0610571
0.0601355
0.0549981
0.0566394
0.0982225
0.107829
0.106363
0.109007
0.0857436
0.0831501
0.0842359
0.084728
0.0348679
0.0580894
0.0534427
0.0226926
0.0201307
0.0567833
0.0597798
0.0593961
0.0578459
0.0209773
0.0038394
0.0905448
0.0910314
0.030395
0.0912309
0.0901475
0.0463445
0.0977882
0.100292
0.0763622
0.0793035
0.0489235
0.0448384
0.0810111
0.0637332
0.0635501
0.0643404
0.0780452
0.051708
0.0480736
0.0499062
0.0477064
0.0464782
0.0476714
0.0464163
0.12321
0.124438
0.0521884
0.0377846
0.0379227
0.0390712
0.03668
0.0514617
0.0531457
0.050784
0.0539552
0.138788
0.0921239
0.0904157
0.0921684
0.0901589
0.0524937
0.0510269
0.0468482
0.0495279
0.0489056
0.0540174
0.0541021
0.0556525
0.0525426
0.138045
0.138229
0.0824861
0.0852371
0.0849388
0.0203789
0.018193
0.0310116
0.0677687
0.0657868
0.0652492
0.068163
0.0886937
0.090275
0.0108848
0.050045
0.0437408
0.0403924
0.0432889
0.0400337
0.0651359
0.0629799
0.0670894
0.000349566
0.0992764
0.100418
0.0980934
0.108252
0.0982721
0.0754217
0.0652995
0.0760506
0.0786513
0.0749542
0.0951876
0.0958848
0.0599322
0.0636941
0.0610916
0.0705308
0.0625722
0.0633725
0.0616777
0.0882318
0.0899537
0.0871593
0.120525
0.115142
0.113476
0.113782
0.114906
0.048549
0.0469397
0.0495192
0.0462645
0.000160308
0.0617515
0.0654913
0.064257
0.0676488
0.0659488
0.0705068
0.0333869
0.00578363
0.0959205
0.065224
0.0658357
0.0665843
0.0670891
0.0408552
0.0422336
0.0401703
0.103767
0.10467
0.103131
0.105228
0.108748
0.0820769
0.0840033
0.0840754
0.0819125
0.0840161
0.0830206
0.0759589
0.0751933
0.0970991
0.0960134
0.0966064
0.0963628
0.0265566
0.0287973
0.0272337
0.0343924
0.0345085
0.0334378
0.0355119
0.0612858
0.06043
0.060628
0.0608499
0.0222266
0.0678682
0.066955
0.0671556
0.0161229
0.0467313
0.0433949
0.0455239
0.0443149
0.0493978
0.0521818
0.0494107
0.091931
0.091382
0.0918356
0.0799698
0.0799835
0.05057
0.051517
0.0489673
0.0527314
0.0925736
0.0915919
0.0930671
0.0910067
0.0636579
0.0622236
0.0631893
0.0626806
0.0891954
0.0887524
0.0894025
0.0885108
0.00492821
0.00453748
0.00585096
0.0120048
0.051628
0.049222
0.0421548
0.0406271
0.0412023
0.04158
0.0443958
0.108868
0.108432
0.10771
0.109749
0.0926877
0.135811
0.134859
0.135138
0.135275
0.0654706
0.0660606
0.0651108
0.0125693
0.0328322
0.0349746
0.0805678
0.0808627
0.0792733
0.089762
0.0896295
0.0895302
0.000197467
0.0486401
0.0491855
0.0474728
0.10114
0.0693271
0.0694064
0.0695514
0.0523375
0.0536561
0.0533401
0.0703467
0.0782817
0.0800252
0.0776286
0.0805199
0.000441365
0.0523724
0.0515985
0.0521617
0.0502041
0.0706414
0.0676061
0.0722241
0.0644027
0.0666333
0.0630534
0.0620745
0.0395373
0.0896913
0.0882883
0.0880414
0.0898927
0.128075
0.0556747
0.0563008
0.000648851
0.121369
0.121052
0.0874319
0.0872051
0.0867079
0.087924
0.0575847
0.0526184
0.0564518
0.0544701
0.0570569
0.0598144
0.133329
0.0781939
0.0815872
0.0795557
0.0802063
0.0566084
0.0570343
0.0480277
0.0500255
0.0478948
0.044514
0.0382919
0.0397821
0.0388786
0.0392402
0.00123203
0.0494141
0.0494776
0.0479862
0.0508767
0.101622
0.102236
0.101936
0.0305611
0.0270316
0.0580794
0.0581962
0.0756236
0.0635346
0.0645769
0.137224
0.0786552
0.0868436
0.0860941
0.0871994
0.0856246
0.133013
0.138205
0.0275696
0.0101756
0.00992271
0.0198178
0.044934
0.00547308
0.0111262
0.0114336
0.0190875
0.0942478
0.0551689
0.138605
0.009548
0.0100455
0.00558344
0.00490814
0.138594
0.138431
0.138456
0.138268
0.00864554
0.0577707
0.0565465
0.122329
0.117835
0.12763
0.12556
0.0966302
0.100693
0.0140328
0.00752374
0.000296862
0.077644
0.000931006
0.0191883
0.000573851
0.00817872
0.00957634
0.130895
0.0806083
0.0400869
0.0347376
0.0284517
0.000341115
0.139164
0.00474332
0.00466772
0.00553973
0.0905776
0.00449426
0.148983
0.144385
0.00726485
0.137865
0.000212127
0.0251935
0.023664
0.0119936
0.014408
0.0209381
0.120826
0.0935917
0.0223111
0.137334
0.137438
0.0456131
0.028495
0.0268627
0.0801827
0.102904
0.135826
0.13644
0.0302202
0.028453
0.129657
0.00792388
0.00158865
0.000340706
0.120382
0.118663
0.0010141
0.00532955
0.0291828
0.000972114
0.000448
0.00410544
0.12152
0.114874
0.118207
0.117942
0.00289695
0.0454146
0.00601446
0.000250848
0.022808
0.114168
0.117974
0.0391867
0.00600938
0.00339694
0.00310873
0.130565
0.0397644
0.132166
0.129678
0.131028
0.167758
0.0151907
0.0945483
0.00388871
0.00484984
0.0009181
0.112693
0.00664386
0.0360251
0.0123863
0.040285
0.0378346
0.0377992
0.0345972
0.0209642
0.0217855
0.0219144
0.0176879
0.0248307
0.0402955
0.00844208
0.00872009
0.00192681
0.00339036
0.0295124
0.0188135
0.0164559
0.0041794
0.00482244
0.0304117
0.0322642
0.0211309
0.0200713
0.0210188
0.00204897
0.00610469
0.0149798
0.000919093
0.000350712
0.000527083
0.0169582
0.000603957
0.000776277
0.000308278
0.000470405
0.00838416
0.00112631
0.0651935
0.0201385
0.0496465
0.0268543
0.00532507
0.00663064
0.0401712
0.0330096
0.0739727
0.022284
0.110827
0.0326622
0.0973158
0.00065969
0.00571243
0.132939
0.00395057
0.0968348
0.0793266
0.133133
0.132294
0.0390956
0.0108497
0.138345
0.123253
0.124299
0.0178746
0.0718069
0.0711312
0.132101
0.00414563
0.00773125
0.0030653
0.00515344
0.00564879
0.00511597
0.00954749
0.00414263
0.129899
0.0336146
0.00444863
0.00587726
0.008429
0.011242
0.0285956
0.0279806
0.0473638
0.110549
0.00801354
0.000193058
0.137853
0.13771
0.0231813
0.0222116
0.0296272
0.0284504
0.0291791
0.0793597
0.0231495
0.00870605
0.0013189
0.0120301
0.047687
0.0449276
0.116759
0.100292
0.00263727
0.00285531
0.134275
0.0567267
0.0280253
0.0427805
0.0436238
0.00635447
0.0790682
0.137965
0.0166892
0.0179125
0.0164709
0.136527
0.136863
0.0385234
0.0336504
0.00687631
0.0594426
0.0669382
0.0344539
0.0311004
0.0124016
0.0139358
0.135109
0.136325
0.0672207
0.150497
0.143692
0.138608
0.138428
0.0134589
0.12249
0.00740853
0.00796637
0.0559051
0.00782591
0.0102456
0.0106353
0.0173177
0.118401
0.00846063
0.00953436
0.0235185
0.00520353
0.00550825
0.128823
0.00952713
0.0332901
0.00831821
0.0601581
0.136896
0.136985
0.00198436
0.114629
0.000787815
0.023722
0.0810358
0.083771
0.0723144
0.0331725
0.0327379
0.0111042
0.0135349
0.0244519
0.0516589
0.0243458
0.228161
0.184864
0.000452946
0.0389465
0.0390256
0.0376241
0.0376655
0.00809291
0.00320217
0.068031
0.0400909
0.054407
0.0559353
0.0491969
0.0268661
0.0112219
0.12834
0.122043
0.125237
0.13803
0.138113
0.0281275
0.0347173
0.0275322
0.0398087
0.0416325
0.0990984
0.0925208
0.10712
0.0469043
0.0416016
0.0286555
0.112527
0.0377774
0.0649201
0.0668113
0.0688719
0.0490305
0.0288633
0.0855369
0.0838457
0.104124
0.138423
0.111169
0.108988
0.130657
0.125993
0.0176159
0.025071
0.0182542
0.119624
0.118128
0.128366
0.0101344
0.0117855
0.0639972
0.051978
0.0353365
0.0340113
0.0311883
0.0610544
0.0607877
0.0627131
0.0444715
0.0156931
0.0305123
0.0298411
0.02634
0.0294103
0.136833
0.137222
0.136817
0.137215
0.0145972
0.0143154
0.127936
0.0269601
0.0265863
0.0311982
0.0282497
0.0279676
0.031754
0.0346261
0.0341346
0.137888
0.136209
0.135649
0.0973909
0.0812035
0.0729722
0.136389
0.0280232
0.0250634
0.011742
0.102204
0.275846
0.214073
0.240116
0.060759
0.0595024
0.0867408
0.0342425
0.0334506
0.0302617
0.00131948
0.214159
0.0163214
0.0537569
0.0568714
0.0558338
0.0544115
0.0023422
0.13614
0.136696
0.010477
0.0439985
0.117382
0.138886
0.138942
0.116995
0.116494
0.000288876
0.0473401
0.0888511
0.0564813
0.0577092
0.0577864
0.000413553
0.127255
0.129397
0.124998
0.137296
0.136913
0.0441539
0.0408504
0.0432809
0.0248395
0.0387643
0.0504791
0.0509947
0.0485496
0.0939669
0.000711241
0.124172
0.121354
0.0169703
0.00197772
0.104459
0.109694
0.122166
0.118223
0.0460014
0.04499
0.0209284
0.133375
0.0515552
0.0506578
0.0530574
0.0528576
0.196736
0.186362
0.0358961
0.0349445
0.0336977
0.00791606
0.0100709
0.0177269
0.0198876
0.0215517
0.0394213
0.0250682
0.0555987
0.0538498
0.0422147
0.117348
0.120126
0.00164726
0.0391935
0.0631354
0.064494
0.0664193
0.0366646
0.0409355
0.0571802
0.138469
0.0124804
0.0541939
0.0565012
0.0558819
0.122663
0.122218
0.0132841
0.135209
0.0233435
0.00895057
0.0709904
0.0739485
0.0760374
0.0593791
0.0587676
0.0959349
0.101474
0.0455025
0.0436678
0.0209909
0.022072
0.0282847
0.0252841
0.0164354
0.0131407
0.0154743
0.0455852
0.0443925
0.023684
0.00380383
0.106726
0.0324207
0.0321853
0.0337594
0.0108656
0.023106
0.12491
0.123786
0.0835645
0.0840788
0.0832636
0.0228131
0.0688702
0.00985357
0.000879357
0.138795
0.0659121
0.0371193
0.0351502
0.0376667
0.0489714
0.0358621
0.000514387
0.140366
0.0558383
0.0887262
0.0194026
0.0253079
0.0664538
0.0290932
0.0276346
0.0131311
0.0869669
0.0341376
0.0043094
0.131067
0.123813
0.0986305
0.0993929
0.110025
0.00138465
0.00429075
0.0541267
0.0158405
0.0501146
0.0542788
0.0439934
0.044233
0.0483716
0.0486597
0.0524414
0.0185453
0.0192962
0.120726
0.118477
0.138903
0.138838
0.0927613
0.0910341
0.00540578
0.0387201
0.0360599
0.0198658
0.0208256
0.0693506
0.0671567
0.00638134
0.0311553
0.0262613
0.0552664
0.0615976
0.120266
0.117612
0.0962333
0.138548
0.138441
0.0518057
0.0509462
0.0638222
0.062931
0.0380579
0.0349694
0.104865
0.017542
0.0189845
0.053487
0.0564789
0.0571664
0.0558491
0.0669175
0.0644344
0.0836433
0.0831805
0.0819121
0.09932
0.100132
0.100996
0.0418747
0.0422178
0.126646
0.134755
0.135353
0.0156051
0.00904427
0.129829
0.127424
0.0433482
0.0473999
0.0499197
0.0491737
0.0932055
0.136187
0.144522
0.00179026
0.0422282
0.0430481
0.0455678
0.117548
0.0363309
0.139059
0.140582
0.0904941
0.0343826
0.0358381
0.0926002
0.0938701
0.0899618
0.0888701
0.096174
0.0947191
0.0137049
0.0115594
0.0703508
0.0718347
0.139289
0.139235
0.139384
0.116213
0.0384058
0.133104
0.0575651
0.0623277
0.0725203
0.0695907
0.0202828
0.0501982
0.0490147
0.106446
0.107939
0.0419457
0.133355
0.0256197
0.0249624
0.138454
0.138267
0.102902
0.097617
0.0949074
0.0955498
0.0965143
0.0223237
0.0247016
0.12627
0.0333793
0.0347359
0.0634172
0.154667
0.166201
0.0452068
0.137973
0.137645
0.0386606
0.0270422
0.138552
0.0889676
0.0917525
0.0904245
0.0386219
0.0396617
0.0611404
0.0650864
0.0491856
0.0471531
0.134666
0.00388146
0.059856
0.060013
0.0574666
0.0589892
0.0345054
0.12619
0.123029
0.119206
0.0736752
0.0703495
0.0723296
0.121741
0.11724
0.112571
0.072825
0.0743537
0.0739061
0.133452
0.134719
0.134226
0.0875679
0.0766765
0.0609378
0.0628349
0.0186717
0.0168647
0.0190612
0.116255
0.102201
0.108633
0.113777
0.0652248
0.138811
0.130771
0.128729
0.0256837
0.0286068
0.0615002
0.0624592
0.091693
0.0907879
0.0898424
0.121967
0.124352
0.118019
0.0859528
0.0868925
0.0869643
0.124015
0.124856
0.125899
0.0659287
0.0632069
0.136964
0.137306
0.137482
0.0623597
0.060987
0.0606789
0.129141
0.130172
0.0651788
0.065558
0.00906836
0.0596135
0.0597091
0.0604169
0.0603244
0.0173465
0.018587
0.0582683
0.0607356
0.0607238
0.0748223
0.202185
0.256494
0.0459437
0.00291718
0.0678431
0.000712667
0.0872091
0.0881633
0.0423909
0.0167882
0.133155
0.138131
0.138206
0.122881
0.123909
0.0530655
0.0517822
0.138582
0.0806032
0.0800724
0.00778842
0.136428
0.13736
0.137753
0.0641353
0.0633351
0.132053
0.107285
0.105229
0.126963
0.12314
0.131417
0.131555
0.0510681
0.0518919
0.0852867
0.0872873
0.0123563
0.0965835
0.101411
0.180796
0.153004
0.0976803
0.097668
0.118053
0.111578
0.0777283
0.077338
0.154845
0.141605
0.141668
0.0480199
0.0466245
0.0473433
0.0633953
0.0627177
0.0144592
0.134977
0.140745
0.127603
0.0700045
0.064285
0.0767358
0.0764918
0.130934
0.132575
0.132715
0.0417524
0.0441829
0.0791242
0.0799858
0.113319
0.115173
0.0345681
0.0380495
0.0643311
0.0638168
0.032864
0.0336905
0.0356593
0.107814
0.112323
0.10685
0.0259963
0.0569576
0.0573398
0.0572202
0.0528295
0.0528726
0.0509079
0.0455798
0.0477389
0.151303
0.0375882
0.0410478
0.0681367
0.0683234
0.0739496
0.0740539
0.0749931
0.079698
0.0773201
0.0752287
0.0715909
0.0692548
0.0408767
0.0420445
0.0437064
0.0458699
0.0471138
0.0550364
0.0561076
0.0189236
0.0261555
0.0275963
0.0256028
0.0231282
0.0256825
0.000633853
0.137384
0.136537
0.135778
0.138235
0.138525
0.0760983