/*--------------------------------*- C++ -*----------------------------------*\
  =========                 |
  \\      /  F ield         | OpenFOAM: The Open Source CFD Toolbox
   \\    /   O peration     | Website:  https://openfoam.org
    \\  /    A nd           | Version:  6
     \\/     M anipulation  |
\*---------------------------------------------------------------------------*/
FoamFile
{
    version     2.0;
    format      ascii;
    class       volScalarField;
    location    "900";
    object      p;
}
// * * * * * * * * * * * * * * * * * * * * * * * * * * * * * * * * * * * * * //

dimensions      [0 2 -2 0 0 0 0];

internalField   nonuniform List<scalar> 
29874
(
2.94848
0.175578
0.164817
-2.93844
0.181953
-4.54885
-1.18269
0.72966
2.56057
0.595007
-2.41997
-0.0413745
-2.02154
-0.279572
-2.17363
-4.37899
-2.97064
-3.28277
0.38194
-0.00454819
3.22524
-1.81424
1.23051
0.888906
3.85092
-0.695689
-2.13777
0.264441
0.46588
-2.74241
-2.58918
-3.72233
-0.611458
0.992207
2.89231
1.45106
2.8643
-1.71724
1.42144
-1.05967
1.00822
1.18177
1.43828
3.2386
-2.50331
1.76467
0.988751
-0.829019
-2.93608
4.19442
-0.385835
-2.50575
-4.13668
2.55848
-0.313614
-0.802772
-0.674532
0.851235
1.78836
-2.25332
-0.67793
2.19114
1.52791
6.16863
0.296798
1.01182
0.349962
1.16919
0.6507
0.570136
-1.98014
-1.49895
7.61911
0.536131
1.23991
-2.6483
-0.947335
-2.38917
4.57489
2.61471
-3.42829
-0.281174
1.02844
-1.57863
14.726
12.5117
0.473749
0.278798
-1.80246
-1.0083
18.4062
1.18469
1.25154
-0.597922
0.153315
2.99714
0.533104
14.5283
19.7766
-0.276418
-0.320011
0.510759
0.961305
4.6947
6.39459
19.6181
17.7963
0.178726
0.69163
0.339374
18.0687
-1.64143
-1.80185
1.13135
1.03489
1.0351
1.99051
1.63624
24.487
1.69929
1.38185
-3.56237
-0.0478196
-0.120334
-0.122302
3.39416
-1.25755
1.32722
1.69664
3.88602
0.735833
3.00068
2.57349
1.16738
0.789722
1.56501
1.04923
-0.186623
-1.69365
3.49234
0.995967
1.53002
-0.572713
5.60638
0.952655
2.91632
-1.21518
2.05548
0.585111
1.80728
-2.19769
-0.877415
-3.37104
-0.232179
-0.610227
1.16909
3.84508
-2.21088
-1.81976
-1.97323
-1.51835
4.40909
7.20682
0.863001
0.659577
0.968935
0.551604
3.38672
3.94534
1.04169
0.797381
0.644794
0.87118
15.9423
17.2138
0.781388
0.523925
25.2575
3.87878
3.96785
25.056
25.0718
-1.49059
3.36292
4.22825
-4.61786
0.441648
0.510349
-0.18247
0.94414
0.95918
-4.92619
3.42354
3.54926
3.29497
1.79601
1.48571
-0.476872
24.9203
25.0181
-1.6015
-5.66818
3.33802
2.84266
2.26439
2.78041
2.28417
-6.28402
2.15103
2.25862
2.09434
0.543244
5.1367
3.4295
-1.41168
1.42994
0.663235
0.482977
0.502615
0.716334
-1.01509
-4.70646
-0.305287
2.21901
0.815255
0.508833
-0.340521
-0.154928
-0.617732
0.801317
0.827496
0.771366
-0.000534184
-0.540769
3.39057
3.51542
4.41764
-0.605569
0.382347
-0.618769
-1.81792
22.4411
21.7457
3.93103
3.0284
21.1794
21.4254
-10.5552
2.6455
-6.38714
16.2896
2.09459
-10.1598
20.3775
0.210533
20.8215
18.9532
23.4286
-6.72393
19.293
-3.27674
20.4174
18.7146
-3.92306
-5.21687
-6.25466
-6.7787
3.2993
3.45166
24.746
20.6737
21.0371
-7.28642
-8.67777
-0.166231
2.84635
-5.12133
23.7181
4.15894
-0.621356
-1.58204
0.198675
0.687262
2.34781
2.08183
3.18559
1.21735
0.812207
20.5777
20.3452
4.17539
2.89256
3.02121
-9.27004
-9.1357
18.9785
18.9964
-4.01562
-9.39614
-9.2136
-8.67519
20.0222
3.29815
21.358
3.13821
3.25561
20.3985
2.14377
-3.98731
24.6647
-8.44681
-8.45333
-4.34153
-4.82773
-4.47353
19.5367
19.5805
-4.59045
3.65894
3.73786
-5.76076
-10.1798
20.332
21.5308
4.02827
4.05837
4.3494
-0.608942
19.2663
18.9778
3.49277
2.87719
19.5058
19.4429
-8.47657
-4.95917
3.07664
2.60639
2.61927
2.5679
21.2049
-4.16082
21.5817
21.2591
21.352
21.4464
2.27505
2.61542
-9.31696
3.02116
2.06701
-3.21194
-10.3844
-9.47448
-9.77024
0.415281
20.8618
20.5078
8.65905
24.7809
-4.4547
21.0188
-7.26217
21.4236
21.4817
2.89763
2.97998
2.66869
6.14701
20.2944
20.564
19.6791
20.2413
0.877917
0.66294
19.878
18.728
18.5592
18.9409
18.2296
21.3625
21.7477
3.36419
3.17873
3.39579
3.21652
-2.95231
2.36837
2.25445
2.05738
-7.35034
-8.74465
22.122
-6.45327
-5.40082
-9.04221
-8.51631
-9.20559
-9.30095
2.8849
-6.00305
-6.59161
-6.18108
4.59293
4.56446
4.07002
21.4427
21.1442
21.022
20.9483
15.8382
17.0991
16.3251
15.9632
1.75207
19.958
19.5483
19.3037
19.813
21.2154
21.4599
21.7265
16.9243
17.9812
15.9781
16.9525
17.9352
16.5141
-1.16966
-0.521588
-4.8083
-5.42104
-5.53351
-4.87872
19.6363
-3.90794
-3.34534
18.6693
19.081
19.1506
18.4278
18.2924
17.8964
19.8571
19.901
1.65243
4.3326
4.40372
4.67589
3.63451
20.0949
19.9067
20.8084
15.4298
14.8568
15.4151
-5.95713
-5.60342
-5.92922
-5.33396
-6.68158
-5.53387
-7.34893
-6.42068
19.7555
19.3307
19.7701
2.6112
1.08235
0.959867
1.02797
0.90248
0.684664
11.7638
4.01884
3.89225
3.81233
19.5405
19.8274
19.0199
-6.70182
19.883
18.7773
19.0991
19.1159
1.13077
21.365
21.6954
21.5252
20.9504
-2.12005
24.7419
-5.0638
-2.44848
25.2481
-0.534814
-2.48139
0.584028
0.662407
0.675437
-2.87019
-0.990932
2.62597
2.30756
-0.326542
5.65129
6.22283
4.31341
4.67855
-2.30116
1.48605
1.60379
10.8225
1.02604
1.11221
24.2662
0.592902
-4.32037
24.0795
-0.268769
0.973076
-1.19291
10.6869
-1.80258
-1.78816
-2.08431
1.13843
0.60429
-2.03914
-2.20713
-2.19552
-2.07491
3.64023
3.73583
0.296679
0.386319
-0.438667
5.07043
2.79095
2.86486
-0.21763
-0.281474
24.2238
24.1262
-1.34831
-1.30541
-1.91489
-0.175008
0.175127
3.27636
-3.97275
0.767435
0.866732
-0.140539
-8.32613
-9.28687
-7.49037
9.37707
0.648137
-4.34763
-2.48514
-0.389829
-0.382205
-0.303725
-0.681361
24.4522
-3.12313
-2.80458
14.2172
13.4216
21.7339
-4.11641
-0.723141
-6.87104
-4.59579
-1.23588
-0.95804
1.20998
14.0681
-4.68547
-5.36581
7.61544
8.6161
-0.48915
2.82753
2.8073
-0.588795
0.642063
1.01802
0.847655
1.06163
-5.10071
-5.72178
17.8702
18.2098
2.52357
2.11226
3.95164
4.34601
24.2957
0.205332
-4.07496
2.04429
2.20629
2.41895
0.588847
0.651812
1.49626
1.51671
1.39899
18.9309
19.3857
18.9943
1.9214
1.96546
1.82205
2.1513
-5.78653
-5.21906
-4.98158
-0.45608
20.994
3.93109
3.75521
3.46746
3.80094
18.3519
19.3158
9.44267
10.4331
3.25999
0.0774519
2.87501
2.42444
-9.5073
-10.4946
12.5734
11.7798
10.9659
16.6333
16.029
1.79572
1.88671
2.06433
-2.52924
1.46354
1.1381
4.49283
5.27977
4.90645
-0.805263
-0.968793
6.16946
6.22306
6.86918
0.878284
-3.45809
-3.3027
-3.08591
24.7689
24.2752
0.114471
0.249688
0.555912
19.1471
19.3556
-0.878683
-1.33528
-0.528617
-23.103
-22.2327
6.8675
-9.30373
3.01175
20.9611
3.28417
21.8102
21.1542
1.4202
5.69849
5.10767
-11.4959
3.36372
3.27418
4.08324
4.24591
6.12084
-7.23859
-2.81108
19.7763
18.4156
3.0007
2.7331
-11.004
-11.0951
-0.00710287
-12.1244
23.7562
22.5755
23.1818
23.3804
0.371634
-3.74948
-3.32844
14.5823
20.0402
-3.40922
23.0462
-2.02809
21.3624
6.19601
18.4036
18.7357
-0.675239
-8.24929
-10.312
18.3744
18.6634
-0.00804325
-12.4637
1.73294
2.35854
3.43836
2.61774
-8.11387
-2.56753
2.56501
0.461194
-1.09212
-1.2835
-11.0836
-10.9114
-3.48543
-3.14882
-14.0161
3.7953
3.58012
-17.8007
3.43489
-6.89088
-32.1574
3.15048
0.812602
-6.20534
-31.7769
-27.5614
3.39155
-16.9382
-18.0935
20.6513
6.01233
6.24434
-2.66114
20.246
19.9761
3.36382
2.03519
16.6744
22.0089
21.7925
-3.76649
5.59569
5.30836
-8.61271
-8.33429
-11.7092
-11.3382
-3.00749
-0.19125
17.6528
17.6344
-6.20968
-1.02232
-4.2045
0.0832081
-0.126231
16.9676
15.6822
-7.21547
2.36757
-8.07757
-6.78261
3.54678
18.4254
18.6181
4.60655
-4.82786
-11.3509
9.42116
-12.3558
-9.89316
-9.99807
17.1353
17.1115
-16.2005
-23.0107
-11.3534
15.0305
-16.309
5.89281
3.41238
-4.16542
-5.27108
4.21233
20.1538
16.7104
2.00224
-22.5183
-4.80415
-1.01631
1.97079
4.2943
4.52543
-9.56297
-9.49748
3.2021
17.9478
2.41245
-0.388187
-2.47034
6.87443
-0.0696058
22.2959
21.1364
-11.148
-6.68533
-2.59727
-1.99358
16.1043
14.7836
-0.332351
-1.04371
1.54794
-11.6625
-11.7575
-11.2214
-11.1559
0.578647
-0.638445
-0.838135
2.61409
-4.21281
-3.28263
-6.26594
8.78724
7.73947
7.18753
-2.44615
-3.10477
-14.0116
-14.4631
4.39849
-1.74554
-1.60215
21.6136
21.8878
21.6559
-10.2938
6.61887
4.18571
8.03075
5.16005
16.8894
16.857
-9.92096
-3.60556
3.49239
-3.13847
-10.4315
-11.3396
6.08874
-4.07627
-10.3311
3.09406
-7.11452
-7.6868
-8.51407
-9.09752
-15.2283
15.9529
16.9846
16.2261
2.82521
-9.56252
2.87291
2.32067
5.51388
6.83429
-5.82587
-6.10456
-10.5677
3.0126
3.26726
2.54318
2.39132
2.65253
-3.97596
14.3816
-21.8804
0.203322
2.33208
2.5166
-6.79507
-6.9274
1.25576
18.8703
-11.6824
-12.7142
-12.3816
5.32414
21.1209
4.46882
1.65852
-20.3557
17.355
14.4782
4.37269
4.25952
4.49618
0.891265
-1.89974
-18.2279
-0.348058
0.447285
-6.16017
-10.3312
-10.1333
-1.85156
-15.5432
-1.93952
-10.3225
-11.5285
19.1976
18.8622
23.976
-10.1999
-9.88882
-10.1339
22.2147
16.9068
16.6861
3.0298
-10.0213
-8.77581
-9.56822
3.98666
-4.2692
5.93199
21.0315
-11.7701
3.25597
-0.7028
4.18935
3.7486
1.66496
1.89295
2.13494
-12.279
22.9832
1.17388
1.81771
23.6914
2.92968
-3.04567
1.08125
0.961077
-10.9544
13.1853
-0.311068
-0.421654
19.8212
-3.57549
-6.61107
18.4857
-5.62618
-5.10137
1.44202
4.79979
19.2353
19.0382
19.7312
17.7576
2.8452
1.82392
0.514915
0.686322
-3.30436
-3.91099
-8.56616
-7.43419
-8.48681
18.3099
18.5579
20.9621
0.519981
0.819381
-10.607
-10.9204
-7.45779
-7.70263
-4.32038
-3.82187
-5.80136
-3.79945
-3.14802
3.59293
3.1002
17.5453
18.2839
-9.95876
22.4358
17.8724
18.9372
-12.6755
-12.0269
-10.327
-11.5758
4.7108
3.55272
3.70699
3.69264
3.62133
-8.61348
3.1131
3.55325
3.10463
-3.87818
-3.28684
-3.62327
-3.06819
2.31475
-13.1382
-11.7398
3.48883
19.4848
5.575
6.18908
5.88997
19.0338
17.3432
17.3287
18.3323
18.6301
-0.642469
-0.113862
-0.948559
-2.58485
-2.03455
-2.25477
-2.23384
20.9023
21.1722
-11.7365
-11.5635
-11.252
-11.4342
-2.9985
-2.03721
-2.75024
3.32127
-2.85903
4.51103
17.5059
-9.19151
18.6811
-11.1875
18.7502
18.9131
3.60418
3.64266
3.69861
1.9127
1.74696
2.22985
21.5495
1.94378
1.82381
2.04526
1.9135
1.98286
1.89895
1.71939
-4.37233
-3.95142
6.19218
23.5094
4.17373
-6.26191
5.41677
17.2708
-8.05268
3.83505
-17.3786
-1.65195
-1.53426
-15.6981
17.8925
17.7669
17.8599
2.66648
2.64864
3.1842
3.19076
2.69345
1.06781
0.937055
0.888563
16.2892
5.42128
5.01844
-9.12098
-8.35424
2.1201
-10.1495
-10.922
-10.2691
-2.45014
-3.09263
-2.27896
24.0413
-17.3356
23.1815
3.37616
2.77292
3.62352
1.70467
21.9336
19.5021
19.7399
3.66369
19.392
18.7839
18.2106
18.5356
0.643442
1.20317
15.3715
15.1462
-9.80871
-9.97615
-0.243111
-2.28633
-7.70218
-6.74205
23.482
4.31882
4.06128
4.39091
1.22132
-11.7202
-11.9635
-11.2362
-5.74732
-9.08176
-8.96726
1.35011
0.901921
5.85591
3.7437
3.90628
3.61454
3.60187
3.64609
3.54086
21.945
3.19463
2.69085
3.04719
2.73975
3.0545
23.6823
20.8891
-0.943398
-1.51119
3.50677
3.5687
3.63146
3.45014
3.13605
2.57927
17.5881
17.8754
3.60227
20.8914
5.26905
4.74272
-9.99969
-10.5402
-11.237
22.5977
4.27256
3.90248
23.9043
23.5169
23.438
9.26407
9.00561
9.25036
-3.06983
-9.61124
-8.62109
4.17899
3.84084
18.1229
18.3008
18.6647
1.11906
0.58569
17.6521
24.5555
5.89143
-9.47167
-9.41479
-8.33776
21.9613
22.0294
4.26797
4.33964
3.87158
3.40133
3.22124
3.37164
16.6002
23.9423
0.700205
20.3463
5.38136
5.37968
-15.4127
-16.2013
19.7867
19.5921
1.41926
0.984876
0.665067
0.0942633
-0.0203391
0.831419
-8.00307
-7.43305
-1.8149
24.1462
24.2397
-12.0677
18.6827
18.1173
-18.4635
-18.4125
17.416
-10.5113
-11.343
20.5557
2.18614
2.52725
14.5851
14.9617
-14.8657
-11.4588
21.6227
7.23803
7.39268
-1.22038
-1.46616
-8.56858
-8.28188
24.247
24.2356
-10.4826
4.62381
4.25113
24.4388
4.56456
5.06771
13.9361
-13.6375
-14.3618
-13.418
5.28494
3.3962
3.75617
3.47919
3.57926
3.78312
-10.2695
23.0689
3.21025
3.54354
3.60886
3.50959
1.79891
1.37747
3.31966
3.19537
0.125793
0.093942
8.17987
3.35804
3.5282
21.3244
21.6549
-9.89479
-10.4505
-10.6767
-10.4259
18.904
-11.0905
3.206
3.42574
-1.71427
18.3446
18.3034
21.5242
21.9132
21.5202
21.4647
2.97066
13.903
13.5162
13.3686
-3.77541
-3.28923
-2.60659
-2.18508
17.5722
16.5658
18.0487
18.7007
-5.82892
-6.51497
-6.76068
24.8321
25.0304
20.5097
20.4023
17.3081
17.6784
17.3555
17.2906
-15.1169
-11.4892
0.685329
0.526083
-5.57588
-8.96112
4.07571
4.41001
-9.88918
-9.59299
-9.46459
-8.48075
4.67836
4.53722
1.20172
1.15188
2.34623
2.49221
18.6412
18.9172
18.3613
17.9648
3.7039
3.63075
3.45591
3.68487
-1.21471
21.5056
2.50295
2.78295
3.04372
2.84849
6.47763
-9.99165
-9.44273
-10.0682
-5.28323
-6.23387
-5.88053
-6.07338
17.5972
17.1539
17.5637
-5.15616
4.84718
-8.81058
-7.27182
-9.15836
-9.20851
-8.53467
18.5909
18.4363
18.7091
-7.42521
-11.1015
-11.0516
-10.9181
-10.9758
-9.14829
-8.68746
-9.23237
18.7045
18.2841
18.1173
-2.33415
-1.86926
-0.479626
-1.10866
4.55964
4.47146
4.71025
2.28104
2.58927
2.0488
3.86795
4.24492
4.00902
3.7506
3.7317
-10.6357
-10.3982
-10.5183
-10.6714
-10.3644
-8.7302
-7.93152
18.8753
18.3993
18.2342
-3.28256
-3.78403
-5.66895
20.0588
-4.1098
-4.37814
-7.14935
-7.64542
20.0859
19.4496
16.3156
16.5955
19.8116
19.4508
2.12273
1.92494
-14.6168
-8.25431
-7.35099
-7.99769
-13.0923
-13.663
-14.4352
-5.1104
-5.71421
-5.75143
-6.23519
-8.28806
3.08894
2.5596
3.31069
3.33231
-21.8001
-21.4724
-11.4838
-11.7316
-10.4188
-11.3572
-7.35633
0.934849
3.89662
-21.1635
15.7724
16.1393
3.64799
3.60907
3.48518
20.2238
20.2037
20.0715
-8.62206
-7.64512
2.53336
2.21094
2.48528
3.58327
3.38136
3.36034
3.43735
2.21877
2.59019
2.61574
-6.26819
-6.47022
18.0706
18.3461
18.5921
3.10246
2.29575
3.09859
3.32857
3.68491
2.9785
-8.23559
-7.93124
-8.2337
-7.84773
-10.9903
18.8848
18.8856
-0.261956
-0.914363
-1.41701
-0.811952
20.2777
19.9781
19.6971
20.1461
5.78552
5.99358
5.95954
-2.47646
-1.6556
-0.946995
-1.01802
-0.840184
-1.19289
-1.90963
16.5529
17.6133
16.9384
17.2499
21.261
-6.13288
-6.43921
-5.73639
16.3885
15.931
15.6911
18.151
18.6021
-7.51384
-8.38546
-7.72379
-7.57268
-4.9189
-4.41455
2.82612
2.41327
2.72522
2.62204
3.42687
3.83455
3.12226
5.15811
4.72642
2.64186
2.99903
17.7912
17.9897
17.7372
1.26662
1.11846
2.29207
2.30286
2.30658
2.42925
16.8399
17.121
17.1471
-7.1016
-7.46365
-6.24314
-7.39923
3.96351
4.00042
3.80539
-7.1398
-6.88241
-7.67172
19.7862
19.8222
18.2396
18.1734
17.9469
19.215
18.9893
18.7813
18.7283
19.8294
19.8884
19.734
3.27369
3.49253
3.29705
3.0246
-12.6463
18.6962
18.5265
18.9921
18.7955
-11.8216
-11.6546
-11.6954
-11.4899
-5.64673
-5.12279
-6.01473
-6.43472
18.8573
18.8563
18.0069
23.103
23.1091
23.1627
0.569693
2.58913
2.1834
2.39682
14.8983
5.21361
4.9365
4.12973
-8.45385
-12.4161
-1.49001
-9.70594
-9.86125
-9.6624
-9.14263
-12.0941
-11.9578
3.31268
3.31109
2.94222
18.6748
18.4012
18.2237
3.71568
3.59694
3.58501
4.02998
21.8588
21.9444
21.6282
21.9077
-5.08807
-4.8909
-4.61908
4.03751
3.85348
4.02263
5.23091
4.3812
5.03344
4.97061
-6.85635
-6.96824
-6.38442
-11.3585
-11.4091
-11.315
5.29841
17.2754
16.6697
16.2722
16.6356
-4.65616
-5.10682
2.53219
2.41018
3.54616
-0.188954
-11.2864
-11.0904
-10.6349
1.04792
1.93065
0.783657
-8.54533
-8.2491
-7.83739
-7.47567
-8.91648
-9.16664
-13.2822
-12.997
-12.3013
0.857032
0.599498
-0.259049
2.55457
2.48719
2.47023
-8.07036
-7.81684
-7.90125
-7.61917
-24.2085
-23.3876
-3.28877
-10.2332
20.107
21.4935
3.8102
3.43162
3.86542
22.2807
-23.5376
-1.70669
-1.21604
-1.78187
8.30343
8.25371
-2.1179
23.9686
1.89692
1.76252
2.11937
1.91906
1.99945
1.64738
1.68184
-5.74292
-6.7714
-5.97956
2.05446
2.65235
3.19898
2.99559
2.74328
3.00365
-3.34052
-3.63953
-3.21373
3.70548
3.52916
3.43235
3.25609
-12.3748
-11.7864
-9.6728
-9.18032
-2.16327
-0.126783
-0.563068
-0.0678622
-0.118073
-5.69756
-5.34379
-9.75018
-9.31853
-10.0209
-9.95591
-1.90804
-12.0946
-12.1068
4.2421
3.63541
3.80208
3.98918
3.78363
19.557
20.0352
19.9803
-4.5786
-4.33313
-10.5758
-10.9761
-10.7379
-3.18826
-2.74167
-2.09684
-1.30863
2.73604
2.32243
-12.7109
-14.4129
-12.8374
3.67968
3.64412
3.84909
19.2732
18.6738
18.1959
18.7851
18.3881
18.4911
1.61724
-4.79706
-5.57802
-5.63813
-5.66566
-4.43971
-4.76874
18.9065
19.306
-3.56995
-2.60746
-2.06726
-2.0527
4.65673
3.94196
4.29702
4.51598
-2.45841
6.10888
6.02416
-8.64384
-9.14307
-9.25136
-9.27976
-9.35135
-9.64111
1.1704
3.05055
3.3848
3.20099
-0.853135
-1.45933
-1.52411
-1.56605
22.308
19.3898
20.0442
-14.5552
-15.7337
-9.88231
-9.10511
-9.73981
-8.96653
-19.1234
-3.67682
4.65035
4.93049
-16.4986
3.3983
3.22312
-8.20443
4.30472
4.40628
3.61351
3.70426
20.6849
20.9571
1.91862
-10.4488
-9.70894
-10.3801
4.21494
-5.50354
-6.15438
-5.90374
-5.1604
-5.79674
-4.32737
-4.94276
2.51756
2.28184
19.8578
-9.36822
-9.05258
-8.66776
-9.56917
18.1935
17.7129
18.8445
19.0092
3.42002
3.11939
2.86872
3.33441
3.25141
20.7758
-4.57458
-4.28822
-4.33881
-3.40959
-6.89166
-7.68053
-7.73549
-7.41593
1.58399
1.51528
15.9133
15.6173
16.1203
-4.9001
-4.81928
-11.1279
-3.49808
-3.80287
-2.62852
-2.33037
-0.406168
-1.02174
21.8355
19.8172
-5.60032
-5.12801
-5.74933
-6.02685
18.6038
18.8118
18.4859
23.0207
3.41496
3.66384
3.3224
1.25462
1.19284
3.30605
-5.28444
-1.5775
-0.225362
-0.732624
4.13921
3.82031
-3.8353
-2.9964
-4.18579
-14.0356
-10.9606
-10.8941
-10.8788
-0.935059
0.176177
-0.783462
3.12585
2.96448
3.27064
2.7191
2.94398
20.7192
21.101
21.1018
21.3769
23.6133
-3.12078
-2.43186
-3.20664
2.19229
2.51849
2.82388
22.4693
23.679
4.88834
-10.6756
-10.7567
0.914489
1.0122
-9.91166
-9.983
-9.66663
3.5355
3.52566
3.68323
3.58739
2.44535
-0.938396
-0.666859
0.217104
0.402381
2.35593
2.03605
16.403
16.7189
3.95369
4.02388
4.0821
3.89985
-12.7488
-11.7697
-12.7584
-10.4728
-10.3041
-10.4517
-9.79886
-8.12968
-7.36144
-8.40603
-8.73685
-14.4392
-11.3006
-11.2062
-11.1076
21.8857
21.0663
21.1638
20.5154
20.83
-8.422
-8.49194
-7.88475
4.64715
4.4972
4.69621
1.69784
1.74209
-2.152
-2.81794
-2.51564
-3.43174
1.15659
0.561036
2.2354
1.88764
-0.393023
-1.10737
-0.352103
-0.223662
3.30478
3.39208
3.56126
3.10824
-3.62255
-3.68622
-3.69652
-19.6919
17.7251
17.9622
-6.60571
-7.34656
-7.14748
-6.76259
-8.48019
1.81256
1.24629
2.08924
1.72446
6.35375
5.05943
5.86894
5.41056
4.97281
-10.688
-10.8079
-10.2587
-18.4926
20.5825
20.6205
4.00339
3.95491
3.54514
5.3993
5.61485
5.33893
24.8437
-12.3337
-13.0403
-13.1028
1.82708
-11.5315
-11.7671
-11.6105
20.3909
20.2458
20.0892
-11.9074
-1.68584
-1.08352
-0.268817
0.182232
24.2037
-11.4684
-11.2411
-10.3174
-12.1367
3.565
3.38096
3.46539
18.7016
18.7906
-10.1149
-10.0791
21.865
0.829611
-0.00231739
1.13365
1.80733
-9.3132
-8.44394
-8.00202
19.6812
1.48171
1.49647
3.1188
3.23658
2.84737
3.08326
19.9629
20.4449
20.2486
20.7088
19.4221
17.9605
-7.75969
-2.30854
-1.62449
-1.93029
-2.0434
18.9282
19.5477
18.751
18.913
-5.36975
-5.59811
-8.21269
-7.63192
-8.03796
-8.1576
9.26098
-6.64548
-7.03641
-6.88248
-7.37551
2.16945
2.97079
3.12126
-8.0364
-7.63379
17.7134
17.5027
3.50235
18.7968
18.9793
0.651494
4.97258
2.40463
2.43622
2.71878
2.52548
-5.9215
0.228166
-15.6255
24.1231
24.1307
21.9363
-14.5805
24.241
24.1185
24.0919
-18.3284
-0.717996
-13.2087
-0.0611987
24.0239
22.9989
23.6181
23.799
-1.8155
-0.00154174
0.0244207
0.0930844
24.3285
-5.19375
-4.39473
6.3966
7.3063
-4.17065
-4.67802
-1.23716
-0.162456
22.1657
24.3437
25.2839
-0.508734
23.9522
23.2146
23.6758
24.5272
21.1039
6.9417
1.95441
-14.3711
20.526
22.6393
25.2598
0.444929
24.1783
24.1609
24.1492
-2.44717
24.0431
-4.28088
-4.72236
23.8214
-4.24743
23.9573
-12.0185
-12.4886
22.2953
21.9197
23.359
1.14383
-3.06365
22.1785
1.05339
0.828993
-14.6319
22.6052
23.0922
0.0230138
-0.52678
0.64606
0.880095
-17.0583
-17.5094
7.49677
-23.5288
24.5814
24.6999
0.644319
0.421974
25.1897
24.0774
-17.3064
22.4528
23.9637
23.4803
10.0078
11.6099
10.8954
-7.1012
23.47
4.81952
24.4931
24.8347
22.3414
8.64578
7.9613
21.9604
24.4967
24.6271
24.6919
0.942093
-7.99721
6.00933
6.95156
6.31897
-3.68608
22.1779
-1.76369
24.6326
24.5655
24.6549
7.15578
22.1141
22.3055
22.2932
20.7759
20.6669
20.4213
22.3483
23.4108
23.3604
22.9783
23.363
23.1668
20.9378
24.245
24.2427
20.1351
19.193
22.8328
23.209
23.6164
23.6811
23.6153
18.6453
18.7097
22.8605
23.0279
23.087
24.6775
-24.8991
23.797
22.7386
24.787
24.8274
23.3232
24.9715
24.8545
25.3147
25.2743
22.3282
24.6995
1.39987
-19.1894
-10.2567
23.0181
-25.2285
-24.1852
-11.6641
22.3195
3.06854
23.4525
-0.40044
22.4556
3.86695
24.5763
24.4298
1.47653
24.6465
0.332738
0.0181634
2.0053
2.29428
22.0502
24.051
-2.7501
0.931408
1.20368
23.6849
-11.7326
-11.7119
2.79354
24.0307
23.1056
24.706
24.5469
24.5136
24.5079
24.1881
23.7312
3.60941
22.5579
23.7317
23.6748
23.117
23.0038
22.8723
22.8809
-2.80056
11.3325
24.367
24.7701
1.68196
1.71339
22.6649
22.6052
21.2587
21.2911
20.9511
1.55222
-14.2317
22.0222
22.6062
22.6291
-0.933744
-0.78681
-0.742101
-0.122601
24.6768
24.5244
2.04883
-11.9111
20.8102
20.2542
19.7477
23.4937
-1.92119
0.263711
22.0724
22.1864
23.628
-2.97977
-2.79378
19.9877
20.0889
23.2533
-6.08054
-7.59975
19.4895
19.7333
22.1714
22.2689
2.22135
1.90931
-0.351344
-3.57737
-4.11104
0.482732
0.42188
22.0695
-0.805845
22.9898
20.2416
-3.20214
22.6633
20.9823
21.2618
-20.3138
-0.446674
21.8328
21.9695
21.2061
23.6909
23.735
7.34808
24.4201
22.5133
24.629
-0.975897
2.46461
2.35095
25.1385
4.42609
24.3478
-18.5436
-2.20957
-1.78504
-0.472332
22.3298
22.396
21.2198
-21.4894
22.2856
20.651
22.2165
-3.4871
-3.43329
23.9137
21.9848
22.0536
22.1069
22.1616
-23.1302
24.4423
-5.08248
21.9849
20.5796
20.4398
20.6477
22.955
23.7656
-1.1478
7.5252
6.93988
0.0972378
0.18254
-16.0141
22.3174
-16.1288
20.9806
20.9518
8.18404
8.97435
8.00165
-3.19961
-2.82396
-15.9955
-0.187326
21.1825
1.30897
1.43255
1.56583
21.0657
22.4583
-1.71269
-2.28005
0.00243607
-2.10589
0.977641
0.562683
1.81993
-4.31236
21.7674
-7.99621
-6.40374
1.51002
1.15935
2.43482
24.4576
24.2877
-0.607664
-12.2644
22.2572
20.205
20.5607
19.4188
19.1166
19.0415
-9.77374
23.6084
22.7414
22.7634
21.0643
22.6423
1.88386
1.79276
2.26064
1.95192
23.6466
23.6201
-2.98145
22.8189
22.7865
20.1617
20.1094
19.6902
21.1375
21.01
20.7498
1.07414
1.19182
1.35972
4.78843
2.00159
0.0636167
3.58285
-5.84056
-5.63627
23.9145
9.5852
-4.94877
-3.9569
-4.34454
-10.1927
-9.80247
3.72864
19.8065
19.3292
19.3447
24.6668
-0.0260582
23.5401
-9.51384
-9.80585
-9.85723
-9.59121
24.3691
3.18467
2.91478
24.1631
19.9803
-5.15958
0.723588
0.829254
-0.543678
-0.458646
24.7697
20.0888
-6.43304
-7.06092
-6.58698
-7.38941
24.5327
-2.10007
-2.8668
-2.19831
0.77516
0.742495
-2.46941
21.2684
21.1116
-0.548423
21.8776
-7.61411
-7.39589
-7.78856
0.420476
23.2337
-0.853577
-0.432883
23.5659
25.1173
1.97613
1.61732
8.04201
9.33797
19.4835
19.4511
23.4275
-7.83067
20.2952
20.2951
19.9062
20.0765
0.702195
-1.2455
-9.03264
-9.48217
-9.99512
23.9657
23.9658
-5.11702
-5.30298
-5.22255
-9.26227
-7.4089
-11.4624
-11.8482
19.6496
-4.92703
-4.65807
24.2242
18.9161
19.2829
19.1782
18.6918
18.6943
18.8099
-1.4839
-2.54634
23.3446
-3.80787
-4.61885
-4.86185
1.79698
1.23878
23.1537
0.753539
22.0308
22.833
-3.30091
-3.41453
-2.75689
-8.02128
-7.50392
15.124
14.4639
21.222
20.8719
18.1683
18.7747
18.6703
19.1598
19.607
19.4219
19.2004
21.1366
19.2877
23.3528
24.6213
11.1212
-11.2463
-11.3539
-10.99
23.7089
23.4767
3.71125
3.44352
2.23532
2.34606
2.128
22.7456
-10.196
-3.0545
25.3822
0.0064865
-4.40745
18.9654
18.7002
18.6477
-0.792796
22.356
24.8285
-6.56277
-3.35014
-0.600711
19.5501
19.6858
0.884464
-12.2888
-12.7461
24.1851
-5.17036
-9.66744
24.5399
-1.02914
-1.69115
3.60203
3.68226
-0.648798
22.3196
-16.4356
20.4462
23.7944
20.5947
20.2097
0.487138
0.154454
21.1029
21.1414
20.7908
23.3812
23.3582
0.203434
-0.50669
0.987277
1.01713
3.81471
3.5591
24.5187
19.3668
19.5274
23.2454
23.2156
1.91226
1.77196
-4.42948
-2.4382
-2.2813
-0.300172
-0.655758
0.74766
0.567141
12.8266
0.865645
0.869239
-9.41005
-9.22681
19.1818
19.2389
-6.02663
-5.49423
0.759767
-16.9143
-16.2804
19.8012
19.5547
19.406
19.3572
-5.49479
-5.75385
2.29532
2.16901
2.02006
1.31109
1.92132
2.11016
21.6933
21.7375
1.56858
1.76498
1.63385
22.5237
21.5698
6.68197
7.65909
21.368
19.2922
19.1785
18.9937
0.207751
-6.84989
-5.72335
25.0527
21.1847
21.0544
-9.1929
0.859162
22.2986
-1.56967
-1.45317
-4.07304
21.857
22.0375
4.34248
4.45635
4.83293
4.83676
3.45251
3.38218
-2.43659
-2.30835
-0.172395
-0.401546
0.710263
0.672612
0.702233
4.88379
-7.91888
-2.04242
17.1262
17.3583
15.8853
16.8492
20.4801
20.4512
20.4294
3.50533
3.40768
20.5895
-4.15117
-13.0956
22.3744
1.2419
1.33191
5.87832
0.654794
-0.595879
0.13815
0.397079
18.9921
19.2353
-0.736194
-10.1515
-9.58365
19.4852
2.80146
2.16652
-5.87247
0.656462
0.709956
19.4321
-12.7015
0.489126
-1.52213
-0.449108
-0.108506
20.2321
20.0896
19.7151
19.1499
19.9091
20.4627
4.63402
24.9379
18.798
19.07
18.9378
-6.22483
22.1983
-8.31009
-8.81621
-10.8775
1.75668
1.60526
1.89877
3.3804
-5.67605
-6.53677
2.63261
3.14039
2.88128
1.66897
1.38857
1.34336
0.0452018
-0.0890373
19.0951
18.9466
23.5084
23.6461
23.5225
0.960488
0.859231
1.3999
1.49752
-12.0649
-0.646839
5.50052
6.49652
-5.18486
-5.26926
-8.77052
-9.24302
3.24785
3.19421
3.10971
9.04006
8.3422
9.7201
-0.320966
-0.359714
-0.147775
1.62943
1.92513
1.63814
17.81
18.8861
2.59821
2.46455
2.20191
-9.94098
-9.50833
-9.87732
1.60858
1.52101
-10.7092
-10.9752
-4.65837
-7.06799
-6.9245
19.6453
19.508
-17.0424
-16.4163
19.5783
19.1799
19.1182
3.137
-2.90478
-0.362671
18.5982
24.1047
0.396019
24.6665
2.84794
2.93391
-8.73496
23.9956
2.82777
1.44422
1.31556
3.107
3.04046
18.8793
18.9751
0.712683
5.51653
5.3579
-4.41976
4.38368
4.1285
3.86468
0.262314
-0.0907931
6.17387
3.69596
3.71499
5.27172
5.60926
1.09368
1.40232
20.6847
20.642
2.91996
3.19365
-21.7301
4.01024
4.20078
-4.36437
-5.52479
3.54503
3.5361
5.52425
5.84315
4.31474
4.1827
-2.33874
-2.51862
-2.72389
20.5509
20.6856
20.847
19.2782
19.5005
21.7697
-1.53924
-1.43138
8.24537
-6.17324
-6.21263
1.36952
1.14353
-5.70893
-4.51988
-5.73196
-7.41361
-7.8228
1.53914
1.68698
-0.367403
-0.116444
18.093
17.3248
-10.2175
-9.90809
-7.49424
-7.7428
-7.93747
-7.86233
-7.3366
-8.88762
21.4527
-5.24153
-4.77376
-5.00349
20.5281
20.5498
21.0715
18.3004
17.812
-0.714435
20.2306
20.1834
18.6069
18.5409
0.971922
1.14774
1.24037
3.48635
3.02026
2.97502
18.42
18.5769
21.8063
21.6306
20.5257
20.0476
20.0533
-3.02055
-3.71873
-5.87427
-13.2268
-12.9595
20.5417
20.5098
20.817
25.354
4.07649
4.53821
5.03892
-0.275027
-0.229388
3.62885
18.1023
18.6938
18.2572
18.7888
17.9443
17.1205
17.8061
18.4026
1.32444
1.30307
-5.1038
-4.38146
-4.96996
-3.31644
-3.04297
-19.6199
-2.29938
-2.52794
-8.31047
-1.89153
20.6877
20.7016
-3.92935
-3.55406
-3.56701
1.39195
1.3266
1.14417
1.16472
0.628611
21.5949
2.16768
2.60673
-0.183701
-0.0612557
-0.178602
-15.4038
-14.8785
-13.2107
24.9775
24.8598
-14.838
-14.3042
0.479278
1.12223
21.1517
21.2456
20.6665
21.1854
-0.893338
-0.853465
-3.49344
-3.88497
-0.0910206
-0.315971
-0.617177
17.5128
17.5369
16.1852
0.836632
0.764672
0.79772
-2.95191
-3.88229
-3.83904
-4.79024
1.00716
1.86023
2.54661
2.05741
0.966627
0.872582
0.799645
4.12815
-0.922212
-0.671036
20.3521
8.88914
0.728576
20.1857
19.7061
-14.8343
21.7261
1.03828
-11.6186
-11.2118
-9.11124
-12.2269
12.4792
8.16173
-1.6394
6.63776
-3.61488
-1.93371
10.7937
5.49675
-16.603
9.0369
4.61832
-9.14124
6.73762
14.014
13.2838
-8.0456
7.63995
5.1369
10.91
-8.96727
-15.2285
11.4607
-13.0772
12.7068
6.51653
2.8347
-6.99991
-12.7237
12.3413
14.4924
7.1093
7.43282
7.39533
16.9495
10.3573
-0.631243
-1.52076
-1.70777
-20.314
11.4081
12.6762
12.1978
1.90936
2.85191
2.65604
3.51117
5.32345
10.6705
-15.1787
-15.2877
-7.02212
7.49857
-11.4588
1.72481
12.3276
-1.89794
-6.71391
12.2635
2.24332
-2.35747
-7.4555
12.331
13.6509
-27.5446
12.186
-6.538
0.152496
17.1028
7.35724
-10.8589
21.39
21.7935
-11.2028
-12.3995
7.09967
8.50388
8.49419
-6.43165
-0.435811
5.4504
2.50399
13.992
10.3288
14.4554
-4.28278
-4.36122
11.373
10.8771
11.5808
-20.0239
14.859
14.6497
-3.60904
-3.87809
3.01829
5.77982
7.71893
8.33863
-12.8833
-14.047
10.2459
11.2247
14.6849
15.1602
0.138443
1.14816
-16.2777
-17.2363
-0.0805658
0.790729
-13.3012
-8.59127
-9.67478
8.93718
8.44903
-12.0509
9.95828
8.92658
4.55804
5.06796
5.91057
6.52677
-13.7781
12.1543
8.7013
-1.41203
1.9173
-12.0458
8.24812
-15.7071
-1.85978
16.8168
-1.85605
2.03678
11.6667
6.71277
-0.425911
0.122063
-11.7013
-2.45367
15.2068
2.25946
1.35086
-1.401
6.00082
-0.230184
-1.1352
8.5531
9.6489
9.31025
7.22471
18.2626
-3.18142
15.3547
12.6879
13.2369
1.91741
1.15877
17.5084
17.687
5.45784
-20.8535
-0.256654
0.558727
-10.0601
-10.1499
10.7123
10.7532
-8.15031
-8.69213
-9.56427
15.5961
15.8983
9.37321
-26.0786
9.94963
11.5104
11.7302
-16.008
-3.62515
6.94511
-16.8144
6.18816
-20.9153
-3.59572
-3.19855
3.36936
2.97705
-13.5192
-1.19952
6.23662
2.77294
2.09473
1.24412
1.9759
10.4828
14.1967
14.4921
17.5172
-1.90436
-2.67353
-12.1511
10.9044
5.62713
-14.6627
7.88334
7.81813
8.33075
1.13568
1.73166
11.1277
6.17054
6.36262
2.32953
2.54854
10.9279
9.94966
3.08551
3.86153
-4.38587
12.2311
11.6085
-13.7782
1.96752
2.09805
1.71872
2.52539
2.71173
2.60646
-12.1729
-2.31222
1.36528
2.48736
3.33793
5.9879
2.77391
2.42258
13.9989
13.5997
3.42701
-10.1681
13.1853
-14.2662
-0.824312
-0.24907
13.541
13.2531
10.1706
9.61094
-13.1735
6.42664
-3.65254
-3.58438
7.75548
8.66586
6.09549
-0.169082
0.0830919
0.63427
15.0688
16.0693
9.49372
9.89368
10.8086
11.4357
11.1942
11.4003
5.14544
4.41855
-13.5376
-13.7687
-0.810534
-0.552154
-1.22632
-1.4405
21.386
21.3619
21.6091
12.1085
11.7511
11.7716
5.83515
5.63691
12.5476
12.6443
12.6419
3.91629
2.87135
16.0347
14.9007
12.378
12.233
12.6218
12.9906
-11.0888
17.3925
17.5077
-0.378799
-1.50668
10.018
9.68929
4.33767
5.02307
2.38533
3.13022
10.3585
6.77208
0.994587
-6.38942
-6.82769
-12.0711
2.00573
1.62701
2.30316
3.10295
9.26905
-8.85535
-9.63238
-8.7038
-2.18685
0.0370573
0.964272
16.6623
17.5652
3.27752
2.64793
12.9036
13.2068
-2.94587
-3.1753
15.624
15.857
2.90881
3.69122
10.9477
11.1627
11.5225
11.1503
9.34292
9.63938
-3.55858
-2.45039
11.7022
11.6574
-15.2131
-14.0724
22.2009
9.2623
10.6162
10.8562
-8.03629
-8.65195
-1.94681
-1.75669
-3.81719
5.64431
5.65848
2.80413
2.23599
11.8944
12.1423
4.7815
-24.4225
-13.4237
6.46619
9.18235
13.3389
11.1601
-0.839698
4.46897
3.89505
9.72018
10.5371
15.7348
16.3561
15.7013
11.7484
11.1908
-11.9415
-3.79931
11.5568
11.764
11.603
12.1183
4.01294
3.77816
3.48891
3.60654
1.92691
4.1286
3.3073
6.69791
6.01916
6.27336
6.2406