/*--------------------------------*- C++ -*----------------------------------*\
  =========                 |
  \\      /  F ield         | OpenFOAM: The Open Source CFD Toolbox
   \\    /   O peration     | Website:  https://openfoam.org
    \\  /    A nd           | Version:  6
     \\/     M anipulation  |
\*---------------------------------------------------------------------------*/
FoamFile
{
    version     2.0;
    format      ascii;
    class       surfaceScalarField;
    location    "900";
    object      phi;
}
// * * * * * * * * * * * * * * * * * * * * * * * * * * * * * * * * * * * * * //

dimensions      [0 3 -1 0 0 0 0];

internalField   nonuniform List<scalar> 
44596
(
1.53816
-2.16488
0.626718
1.53816
1.44648
-1.44648
1.93771
-0.491227
-0.0938676
-2.14867
2.10159
-0.563427
1.31088
-1.31088
0.215929
1.81678
-2.21227
0.765789
-0.267235
2.30058
-0.800443
-1.20728
0.800443
1.30114
-0.560574
-1.34424
0.560574
0.750309
-0.593929
-0.825734
0.825733
-1.17061
1.38654
1.19425
0.636838
-1.83109
0.0433427
1.50306
-1.54641
1.42573
-1.42573
-0.147054
-1.67603
1.82309
1.55013
-0.0875633
-1.46256
1.12363
-1.12363
-1.10524
1.10524
1.12492
-1.12492
0.239611
1.24614
-1.48575
1.37403
-1.37403
1.46934
0.0807876
-1.31664
1.31664
0.266965
1.34889
-1.61585
-1.58164
1.58164
0.600704
0.582081
-1.18279
1.94092
-0.515194
-1.2537
-0.2185
1.4722
-1.42972
1.42972
0.706529
1.29328
-0.793389
1.49992
1.47148
-1.76689
0.295413
-1.62226
1.62226
1.05706
-0.817444
1.24617
-1.41605
0.169882
0.962511
-0.962511
1.20237
-1.34942
-2.31193
0.831871
-0.831871
1.00908
-1.09665
1.84096
-1.92852
-1.58848
-0.614554
-0.790929
-0.797552
-0.897926
0.897925
-1.03978
1.08313
1.98105
0.0634726
1.48723
-1.5507
-1.53495
0.135036
1.39992
-1.5507
-0.458011
0.00752981
-1.43725
0.11308
0.211395
0.259702
-1.8104
-1.50719
1.8104
0.530073
-1.20848
1.99941
-1.43725
-0.942676
-0.473373
-1.56197
1.56197
0.896223
-0.390358
-0.505866
-0.814133
0.41577
0.398364
0.703194
-0.112771
-0.590423
-0.00133116
-0.0911084
0.0924398
-0.0591624
-0.0633592
0.122522
0.0610558
1.44201
0.85387
-0.792815
-0.00231101
-1.46025
-1.2069
1.20459
-0.0387384
-0.0035451
0.0422835
0.124761
1.06949
-0.793017
0.555222
0.237795
-1.66206
-0.0139709
-0.349087
0.928841
-0.579754
0.416508
0.594266
-1.01077
0.0484676
-0.88264
0.834172
0.00918704
0.0661548
-0.0753417
-0.0351782
0.00960376
0.0255744
0.095618
-1.02465
0.929037
0.805151
0.636857
0.710302
-0.609015
-0.101287
1.24536
-0.142033
-1.10332
-0.163004
-1.09386
1.25686
1.53141
-1.69441
-0.0213012
-0.013877
0.00501968
-0.043758
-0.934818
-0.727243
-0.037039
-0.897778
-1.07633
-0.00692495
0.0325489
-0.0256239
-1.31134
-0.148914
-0.442541
-0.868799
0.0108308
-0.803848
-0.803302
-0.679086
-0.607766
-0.326538
0.934304
-1.1992
0.980699
0.000820344
-0.000820339
-1.1021
1.25351
-0.151413
0.250973
0.904896
-1.15587
0.821629
0.0685141
-0.890144
0.0163681
0.912473
0.912592
0.898502
-0.480109
0.896617
-0.888108
-0.318797
-1.13119
-0.307196
1.43839
-1.19729
0.259592
0.937699
0.536603
-0.852355
0.315752
1.05602
0.943883
-0.743767
0.754524
-0.0107569
-0.882558
1.05244
0.848414
-0.211575
0.253687
-1.18834
0.934655
-0.980624
-1.03048
-0.284196
0.987391
-0.898278
-1.41365
0.935318
0.30841
-1.24373
-0.0094105
-1.41632
1.1406
-0.205947
1.2229
0.758153
1.0759
0.924035
-0.632262
-1.29626
1.0748
0.17134
-1.10606
-0.875979
-1.8522
0.746138
-1.63696
-0.194129
1.15701
-0.734806
-0.422207
-0.103178
0.803477
-0.7003
-0.953877
0.0850785
0.888556
0.116623
-1.0593
-1.32062
0.4203
-0.913196
0.492896
0.823427
-0.612031
-1.52523
-0.805579
0.332206
0.351434
0.716164
-0.776214
0.0600502
0.809064
-0.695984
0.0479742
-0.0387871
0.0377918
-0.0447168
-0.535515
1.02841
-1.23401
0.698499
-0.00106067
0.00106063
0.864929
-0.878786
0.0138568
0.130123
0.000671362
-0.000671392
0.000671374
-1.101
1.101
0.861231
0.801401
-0.671278
0.758901
-1.25568
0.496778
-0.720442
0.569938
0.150504
-0.0101395
0.396681
0.457189
-0.56627
-0.237032
-1.55422
1.49696
0.0572563
0.207164
-1.08972
1.53141
0.946318
1.38903
-1.47006
0.0810313
0.00137319
-0.00137322
0.000701788
-1.00461
0.891837
-0.860905
1.16259
-0.301684
0.817293
1.418
1.29421
-0.712129
-0.638344
-0.372431
0.655866
2.35729
-0.98326
-0.146759
-0.923193
0.230946
-0.644706
0.413759
0.061348
0.799883
0.285469
-0.875892
1.04357
-0.0628713
-1.18555
0.945697
-0.247198
-0.130633
0.795321
-0.11277
1.23612
-1.35853
1.359
-0.000461972
-1.04185
-0.504553
-1.53308
-0.767291
0.384422
0.0469621
0.628085
-0.675047
1.20976
-0.153745
-0.14877
1.70651
-0.48384
-1.22267
-0.145686
0.757516
-0.406082
-0.626266
-0.226089
-1.40254
1.33925
1.96596
0.00399179
-0.00310823
-0.000883556
0.00143106
-0.0065456
0.00511454
-0.0279367
0.0282304
-0.000293787
0.0409783
-0.0203223
-0.020656
-0.00463005
-0.00469526
0.00932531
-0.00945998
0.00482993
-0.0585366
0.0144875
0.044049
-0.0176338
-0.105341
0.122975
-0.00531901
-0.00485645
0.0101755
-0.063776
0.0484516
0.0153245
-0.112227
0.0735102
0.038717
0.0514209
-0.00684225
-0.0445787
0.00664816
-0.00591221
-0.000735957
-0.498527
0.324467
0.17406
0.0186413
0.00159497
-0.0202363
0.00759224
-0.00568944
-0.00190281
-0.00140175
0.00140176
0.00344766
-0.00876667
0.00782365
-0.00497563
-0.00284802
0.0199206
-0.0438223
0.0239017
-0.00812583
0.00592238
0.00220344
0.00375461
0.00383762
-0.0527037
0.00324356
0.0494602
0.0450158
-0.0481403
0.00312458
0.0103891
0.0153885
-0.0257777
0.0374988
-0.0271097
-0.0547962
0.0103798
0.0444164
-0.0387202
0.0562953
-0.0175751
0.0015216
-0.0015216
-0.00597606
-0.00670955
0.0126856
-0.0106713
-0.043571
0.0481786
-0.00460817
-0.00775434
-0.052548
0.0603021
-0.0364533
0.00767187
0.0287815
0.00345816
0.0160466
-0.0195048
-0.00249848
-0.0162962
0.0187947
0.00259382
-0.00259383
0.0139612
-0.0385033
0.0245421
0.00407318
0.00648567
-0.0105588
0.00963711
-0.00194122
-0.00769589
-0.0113689
0.0857886
-0.0744197
0.0650526
-0.0764216
0.052063
0.0218895
-0.0739525
0.0669414
-0.0148785
0.00720632
-0.0027444
-0.00446192
-0.00342183
0.0460803
-0.0426585
0.0616308
0.0090628
0.00957851
0.0186666
0.00587558
-0.0243814
0.0185058
-0.0197539
0.0196018
0.000152127
-0.00771602
-0.0120379
0.0556644
-0.0563418
0.000677344
-0.0462618
-0.0110848
0.0573466
-0.00764301
0.00330018
0.00434283
0.00985115
-0.00714457
-0.0027066
-0.0100081
0.0342075
-0.0241995
-0.0432618
0.0355074
0.008159
-0.00806367
0.00432047
-0.00711202
0.00279154
-0.0166216
-0.0381746
-0.000832347
-0.00486233
0.00569469
-0.0216021
0.013886
0.011976
0.00325208
-0.0152281
0.00592409
-0.0126336
-0.627538
0.301001
-0.0219691
0.011961
-0.0025548
-0.00104472
0.00359951
0.0226397
-0.0230492
0.000409508
0.00745443
0.0151852
-0.0117883
-0.0101808
0.00343158
-0.0152199
0.00750173
-0.0176826
0.00644982
-0.00814027
0.00169044
-0.00221036
-0.00437261
0.00658297
0.000392558
0.00924088
-0.00963344
0.0477699
-0.0373901
0.00904973
-0.0521591
0.0267424
0.0254167
-0.0161652
0.0193431
-0.00317794
-0.00323956
0.0159251
0.0110946
-0.00891112
-0.00218347
0.0446273
-0.0355775
0.0466424
-0.00201516
-0.0463382
0.0107607
0.057207
-0.675895
0.618688
0.00591477
0.00393638
-0.00323259
-0.00441043
0.0628002
-0.340314
0.277514
0.172292
-0.501671
0.329378
-0.000403835
-0.00613217
0.00653601
-0.00311816
0.00613328
-0.00301511
0.0258829
-0.0184285
-0.0116223
0.0307153
-0.019093
-0.0281151
0.0112604
0.0168547
-0.0185609
0.0285871
-0.0100262
-0.0466761
0.0398476
-0.00616023
-0.00451109
-0.0157158
0.0232175
-0.00604629
0.00747735
-0.0050483
0.00664327
0.0141206
-0.0351055
0.0491626
-0.014057
-0.0549404
0.0198348
-0.0011533
0.020203
-0.0190497
0.0061134
-0.0191222
0.0130088
-0.0629018
-0.0493254
0.262162
-0.587867
0.325705
0.00237721
0.0498859
-0.0522632
0.0580415
0.0430436
-0.372753
-0.125774
-0.0116907
-0.00854555
0.00746363
0.0111522
-0.0186158
-0.141601
0.20158
-0.0599785
-0.00126363
0.00126364
0.0920749
-0.0334642
-0.0586108
-0.00543811
0.00833942
-0.00290132
-0.0490859
-0.0296672
0.0787529
0.00841446
0.00570617
0.0113433
-0.00648551
-0.00485776
0.00681671
0.0127851
0.0129301
0.0025416
0.0102435
0.184678
0.11854
-0.303218
0.0194646
0.0060637
-0.0255283
0.0018366
-0.0135273
0.463867
0.125028
-0.588895
-0.748763
-0.133876
-0.00427815
-0.0212501
0.0362345
-0.00368556
0.0319563
0.0270396
-0.0220492
-0.00499031
0.0128091
-0.038433
-0.00751394
0.00135372
-0.00840355
0.00088961
-0.386042
0.483041
-0.0969988
-0.507134
0.496377
0.0231199
0.0331754
0.0399746
0.0449979
0.0100993
-0.0550972
-0.0501924
0.0401662
-0.00102981
0.0406864
-0.000520109
-0.00893034
0.0501898
-0.0412594
-0.0551921
-0.00573153
0.00412925
0.00160228
-0.0777445
0.0286587
-0.00907148
0.0540873
0.0103889
0.00791705
-0.0183059
-0.00923555
-0.0138136
-0.00589657
-0.634676
0.496714
0.137962
-0.037751
0.0261648
0.0115861
-0.000252182
-0.0259942
0.240713
0.236714
-0.477426
0.34071
-0.0999975
0.552466
-0.00790839
-0.00100272
0.00160394
0.00954827
-0.00630445
0.030406
-0.0317372
0.03337
-0.0283503
-0.0600875
0.328332
-0.155638
-0.172694
0.00482905
0.00538662
-0.0102157
-0.00607728
0.00954122
-0.00346398
-0.00623474
-0.0134227
0.0196574
0.00919789
-0.0154326
-0.0114451
0.00514069
0.00111922
-0.0125644
0.0110521
-0.0059114
0.028995
0.0220719
-0.0510668
0.0314873
-0.00118496
-0.0303023
-0.0112002
-0.0488873
0.0368788
0.000913042
0.0256786
0.00833059
-0.00150953
-0.00682106
0.00220317
0.00612742
-0.0249225
-0.02033
0.0452524
0.0133364
0.0190318
-0.0323682
-0.00129821
0.00340884
-0.006527
-0.0046774
-0.0480263
0.0456878
-0.0257672
0.00546585
-0.00779647
0.00233062
-0.00767427
0.00628939
0.00138489
-0.0257825
0.0119056
-0.00617381
0.0318525
0.0143493
-0.0166395
0.00229024
0.0202733
-0.0187063
0.923602
0.209781
0.59162
-0.440728
-0.185538
-0.00992993
-0.00670956
0.00515853
-0.0150885
0.008376
-0.0150856
-0.0489133
0.0107748
0.0381385
0.000461737
-0.0561274
0.0556658
0.00805235
0.0205496
-0.028602
-0.0234409
-0.00892738
0.0403366
0.00985315
-0.0115448
-0.0365955
0.0287919
0.00822522
-0.00176254
-0.00646269
0.00655122
0.00167399
-0.00774045
0.00597788
0.0198608
-0.0164026
-0.531111
0.591162
-0.51246
0.594384
-0.0819244
-0.00421966
-0.00740881
0.0116285
0.0257312
-0.0848936
0.032371
-0.0184098
0.00443435
0.0282327
0.0119065
0.00836679
0.0169863
-0.00507977
-0.014393
0.0227598
0.0735011
-0.0642357
-0.00926564
0.00312344
-0.0193461
0.0162226
0.0205026
-0.00769351
0.0236261
0.325013
-0.33751
0.0124964
0.0021064
0.00923687
-0.00793541
-0.000468142
-0.00582901
0.00876873
0.499358
0.947081
-1.44644
-0.000869047
0.00086907
-0.572001
-0.0683983
0.640399
-0.819887
1.31924
-0.00114827
8.75841e-05
0.467743
-0.410536
-1.0667
1.0667
0.130501
0.945398
-0.885413
0.654437
0.230976
-0.40704
-0.478373
1.24119
-0.26052
-0.980672
0.108327
-0.0531069
-0.0552199
-0.52793
-0.106746
-0.103895
-0.424035
-0.829633
0.925251
0.184834
0.31219
-0.497024
0.369512
0.0435502
0.647697
-0.691247
0.482189
-0.438638
0.0607796
-0.0157818
0.602013
-0.620719
0.536241
0.0657709
0.135636
-0.109905
0.484101
-0.235208
-0.248893
0.197288
0.286813
0.00330993
-0.00354256
0.000232664
-1.01605
-0.144509
0.578328
-0.433819
-0.000651566
0.000651571
0.399485
-0.944795
0.54531
-0.554553
0.601515
-0.309438
0.594907
0.0804568
0.0551792
-0.608613
-0.219947
0.82856
-0.0534877
-0.0212985
0.074786
0.00729161
-0.15719
0.00957135
0.147619
0.644298
-0.702168
0.0935555
-0.328045
-0.374123
-0.69362
0.365575
-0.920247
0.0453316
-0.998065
0.750866
-0.163892
-0.440843
-0.235052
-0.636961
0.410872
-0.131161
0.35188
-0.893888
0.50353
-0.609055
-0.284832
0.000672911
-0.000672902
0.000944969
-0.00345408
0.00250912
1.03702
-0.148466
-0.012316
-0.671418
0.683734
0.943809
-0.617767
-0.326041
0.334753
0.219408
-0.699517
0.663126
-0.0875611
-0.575565
0.880623
0.738589
-0.315159
0.714644
0.0283743
0.0714178
0.0188698
-0.185726
0.226151
-0.0404253
0.220114
0.424184
-1.15502
1.15502
-0.492595
-0.201026
-0.751731
-0.272923
0.831153
-0.327623
0.0794224
0.274167
0.193576
-0.00349683
0.00208639
0.00141045
0.795235
-0.533073
0.30264
-0.0249537
-0.0883129
-0.00835766
0.00252865
0.813669
-0.958179
-0.456476
2.01844
1.04049
-0.542193
0.360707
0.181486
-0.268026
-0.325083
-0.332866
0.657949
0.0363124
0.247128
-1.50281
0.863313
-0.616185
-0.0827612
-0.254418
0.337179
-0.268487
1.20183
-0.0589305
0.0423089
-0.037041
-0.617903
-0.211729
1.07438
0.249426
-0.579485
0.33006
-0.830687
-0.581261
-0.803649
0.255318
-1.05897
-0.00943807
-0.0126315
0.05431
0.0633521
-0.942139
0.711049
-0.000435341
0.00110826
1.2229
-0.683402
1.9063
0.22557
1.03788
-0.812311
0.933986
-0.925614
-0.0904405
-0.290172
-0.289314
0.644132
-0.0185682
0.00417516
-0.016278
-0.0271878
0.0109099
0.111291
-0.647533
0.722606
-0.0750737
0.298571
-0.606673
0.987943
-0.381271
-0.0283453
0.785324
1.04101
-1.1867
0.00608574
-0.629899
0.266718
-0.142255
-0.00356355
0.0263234
0.0430366
0.183115
-0.0668681
1.27072
0.210783
0.848515
0.044174
-0.0552589
-0.0121677
0.0101195
-0.0984323
-0.0747741
-0.141642
-0.0226448
-0.0614319
0.418984
-0.494058
0.509659
-0.0906747
0.34935
0.160309
0.423749
-1.34154
0.158375
0.039771
-0.486461
-0.158244
-0.44669
0.577464
0.0412237
-0.445866
0.287622
-0.0981767
-0.347689
-0.352595
1.13954
0.130053
0.828502
-0.698448
0.567981
-0.000614102
-0.00025493
0.00425492
-0.781659
-0.457192
-0.591068
0.0220293
1.39501
0.711607
-0.758453
-0.00765185
0.00921255
-0.00156069
0.00284367
-0.0104955
0.00170954
0.0044851
-0.00619464
-0.00574008
-0.00648641
0.0122265
-0.15154
0.264644
-0.113103
0.00512954
-0.00430031
-0.000829237
0.00738483
-0.00164486
-0.00573997
-0.00610229
0.00373363
0.00236866
-0.00473575
0.00436661
0.000369147
-0.0143947
0.0143114
8.32477e-05
0.0120496
-0.0023826
-0.00966703
0.00296701
0.00908262
-0.0170009
0.00563721
0.0113637
0.0069157
-0.00262941
-0.00428629
0.00278999
0.00412571
-0.0132442
0.00482722
0.00841701
0.00549308
-0.0187373
-0.00303568
-0.00476531
0.00780098
-0.00823745
-0.00174605
0.00998351
0.00157614
0.00758996
-0.00916611
0.00507423
0.00208933
-0.00716358
0.00522857
-0.00837323
0.00314465
0.00827584
-0.00944803
0.00117219
0.00156325
0.00671259
-0.00762331
0.00527626
0.00234705
-0.00517796
-0.00244535
0.00226035
-0.0069736
0.00471324
-0.0016418
0.00982296
-0.00818115
-0.00230349
0.00417809
-0.0018746
-0.00320819
0.00196147
0.00124672
-0.00295923
-0.00273052
0.00568974
0.0043349
-0.0072941
-0.00295556
0.0101856
-0.00723006
-0.00737923
0.00234593
0.0050333
-0.00147642
-0.00590281
0.00273706
-0.00713143
0.00439437
0.00181448
0.0046093
-0.0064238
0.00751677
-0.00739673
-0.000120037
0.00316948
-0.00270617
-0.000463313
0.00356913
0.00324221
-0.00681134
0.00364594
-0.00510988
0.00146392
-0.00636713
0.00333145
0.00751565
0.000467128
-0.00798278
0.00421831
0.00329734
0.0034616
0.00771723
-0.0111788
0.00816896
-0.00976073
0.00159177
0.0106154
-0.00152318
-0.0090922
-0.00927383
0.000102281
0.00917148
-0.00886139
-0.000462909
0.00932427
-0.00454989
0.00681024
0.00786601
-0.0112666
0.00340059
-0.0132318
-0.00116282
-0.00710002
-0.00613182
-0.0243245
0.0198604
0.00446419
-0.00844348
-0.332683
0.341127
-0.00874703
0.00428186
0.00446517
-0.0057383
0.0073916
-0.00165331
0.184421
-0.192865
-0.0047926
-0.00535993
0.0101525
-0.00899554
0.00133618
0.00765936
-0.00254156
-0.00645398
0.0191111
-0.0044729
-0.0146382
-0.0084618
0.0275728
0.00782641
-0.00242278
-0.00540363
0.00278798
0.00503843
-0.00704964
0.0109376
-0.00388798
0.00548283
-0.00812809
0.00264525
0.00851084
-0.00572084
-0.0011885
0.0116445
-0.010456
0.00441917
-0.00606326
0.0016441
0.00939173
-0.0119043
0.00251258
0.00829611
-0.0082961
0.00229209
0.01568
-0.0179721
-0.00993616
0.00545876
0.0044774
-0.00903007
0.003472
0.00555807
0.00804698
-0.00804698
0.00796447
-0.00796447
8.09053e-05
0.0077578
-0.00783871
0.026759
-0.0108401
-0.0159191
-0.00389885
-0.00605356
0.00995241
0.00593146
-0.0054212
-0.00051023
-0.0223498
0.00616582
0.016184
0.0106262
-0.032976
0.00344298
0.00483973
-0.00828271
0.00520028
0.00144788
-0.00252487
-0.00521559
-0.00341647
0.0153924
-0.00421995
-0.00512202
0.00934197
0.00523573
-0.00319811
-0.00203761
-0.00527314
-0.00194146
0.00721461
-0.0113269
0.00459322
0.00673364
-0.0103515
0.00722697
0.00312448
-0.00456042
0.00698743
-0.00242702
-6.07252e-05
-0.00449969
0.0119026
-0.00964477
-0.00225778
0.00966802
0.00109731
-0.0107653
-0.00856454
-0.00105408
0.00961862
-0.00511062
-0.00345392
-0.00113957
-0.00674225
0.00788182
0.00182423
-0.00673454
0.00491032
-0.000377182
0.00588244
-0.00550527
-0.00101648
0.00587978
-0.0048633
-0.0040099
-0.00416723
0.00817712
0.00891253
-0.00436559
-0.00454695
-0.0113522
-0.00189154
0.0132438
0.0125785
-0.00673409
-0.00584443
0.0053309
0.0065586
-0.0118895
-0.00731988
0.00784703
-0.000527155
-0.00636205
0.00760912
-0.00124707
-0.00746337
0.0111714
-0.00370804
0.00731183
-0.000634596
-0.00667723
0.00805172
7.99732e-05
-0.00813169
0.00933204
-0.00258155
-0.00675049
0.00129881
-0.00678698
0.00548817
0.00270691
-0.00812417
0.00541726
0.00646151
-0.00124608
0.00650299
-0.00525691
-0.00757442
0.000611782
0.00696264
-0.0178024
0.0269122
-0.00910979
0.00157016
-0.00533183
0.00376167
0.0029714
0.0044355
-0.0074069
-0.00637965
-0.0041719
0.0105515
0.00316639
-0.00954603
0.00628092
-0.000106282
-0.00617464
0.00894077
-0.00265985
0.017988
0.00877107
0.0046935
0.00394741
-0.00864091
0.00980992
-0.00965435
-0.000155569
0.0098667
-0.00986666
0.00549485
0.00324131
-0.00873616
-0.00557329
-0.00195134
0.00752463
0.0143142
0.0245566
-0.0388708
-0.00233595
0.00768464
-0.00534869
0.00108238
0.00623589
-0.00731828
0.0161022
-0.0135059
-0.00259629
-0.00493616
0.00159576
0.00334038
0.00934729
0.00261171
-0.011959
-0.0028306
0.00649687
-0.00366627
0.00691569
0.00487533
-0.011791
0.00122442
0.00604868
-0.0072731
-0.00323056
-0.00561529
0.00884585
0.000926621
0.00646386
-0.00739048
-0.0278101
0.0449709
-0.0171608
0.034246
-0.0620561
-0.00833593
0.00137869
0.00695724
-0.00464062
-0.00369531
-0.00931035
-0.00206677
0.0113771
0.00859037
-0.0049264
-0.00366397
-0.0116298
0.00654871
0.00508107
-0.00722773
0.0107688
-0.00354105
0.00165927
-0.00715798
0.00549871
-0.00342221
-0.00273546
0.00615766
-0.008089
0.00104575
0.00704326
0.0014839
0.00186701
-0.00335091
-0.00335142
-0.00138435
-0.00228067
-0.00604439
0.00832507
0.0093794
-0.00810382
-0.00127558
0.00894399
-0.0100836
0.00997732
-0.00777415
0.00020046
0.00514576
-0.00534623
0.00619742
-0.00599696
-0.0247262
0.0315876
-0.00686142
-0.0186477
-0.00607839
0.00271673
0.00519912
-0.00791585
-0.00882735
0.00899451
-0.000167158
-0.00506079
-0.00376655
0.010561
-0.0069063
-0.00365471
0.00625998
-0.0114379
0.0010274
-0.00823587
0.00720847
-0.00410434
0.00756593
0.00623268
-0.010337
-0.00828478
-0.0047928
0.0130776
-0.00638697
-0.00400482
0.0103918
-0.0116016
0.00485937
-0.00784087
0.00383097
0.00180168
0.00389736
-0.00569904
0.00501649
-0.00579923
0.000782742
0.00329488
0.00172161
-0.000831759
0.00787683
-0.00704507
0.00562145
-0.00709788
0.0270474
0.00116826
-0.0282157
0.0449493
-0.0179018
-0.0323481
-0.00615523
0.00957466
-0.00796976
-0.0016049
0.0063441
0.00776951
-0.00546936
-0.00230015
0.00166722
-0.00989839
0.00442903
0.000921929
-0.0170871
0.00495217
0.00385968
-0.00881185
-0.00722315
0.00907774
-0.00185459
-0.00576742
-0.00194931
0.00771673
0.00305456
0.00699598
-0.0100505
0.00696227
-0.00541899
-0.00154328
0.00353205
0.00263079
-0.00616284
-0.0193789
-0.0299741
0.0493529
0.0068469
-0.00918285
-0.00550048
0.011216
-0.00571547
-0.00827072
0.00192599
0.00634473
-0.000487299
-0.00903774
0.00952504
0.0096119
0.00111472
-0.0107266
0.0043141
0.0030028
-0.0073169
0.00742729
-0.00950109
0.00207381
0.00623515
0.000528636
-0.00676378
0.130279
-0.0475504
-0.0827283
-1.0582e-06
0.0093331
0.00805066
0.0109841
0.00415359
-0.0151377
-0.00557821
0.0111574
-0.0055792
0.00180891
0.00549629
-0.0073052
-0.00844091
0.00331868
0.00512223
-0.000659088
-0.0066608
-0.00839512
0.0181356
-0.00974049
-0.00333419
-0.00516257
0.00849675
-0.00217901
0.00989956
-0.00772055
0.00478677
0.00794082
-0.0127276
0.00839088
-0.00942841
0.00103752
0.0113658
-0.00839876
0.0107312
-0.00756082
-0.00317039
0.00277335
-0.00919299
0.00641964
-0.00373788
0.00651124
0.000670563
0.00653314
-0.0072037
0.0105751
-0.00578837
0.00523837
0.00441853
-0.0096569
0.00582932
0.00256156
-0.00387143
0.00970075
0.0105024
-0.00668761
0.00947559
0.00746222
-0.00472517
-0.00159978
0.00851547
-0.0107549
0.00779938
-0.0213944
0.00512869
0.0162657
-0.0135553
-0.00783912
-0.00995199
0.00784219
0.00210981
-0.00941935
-0.000532636
0.000404263
0.00517655
-0.00558081
0.00203981
-0.00696197
0.00492217
0.0299602
0.0177313
-0.0476916
-0.028534
-0.0160446
0.0014261
0.00221624
0.00346572
-0.00568196
0.00468046
0.000449095
-0.00404186
0.0125308
-0.00848893
0.0016475
-0.00737814
0.00573064
-0.0102594
0.00658254
0.00367683
-0.00683119
0.0023782
0.00445299
-0.00584484
0.00786324
-0.00201841
0.00427555
0.0134138
-0.0176893
0.00976862
0.0057286
0.00768516
-0.00604146
0.0102989
-0.00425745
-0.00686391
-0.00340074
0.0102647
-0.00403674
-0.00412846
0.00816521
-0.00237048
-0.00568089
0.00805137
0.00226678
-0.00839671
0.00612993
0.00767957
-0.0102611
0.0171365
-0.006082
-0.0110545
0.00938376
0.00538391
-0.0147677
0.00826171
-0.0350076
0.0267458
0.00109121
-0.00894094
0.00784973
-0.00525577
0.0112192
-0.00596343
0.0091514
-0.00129064
-0.00786076
-0.00102447
-0.00801789
0.00904236
0.0093413
-0.00818135
-0.00115998
0.000479892
0.000920657
0.00285387
-0.00377453
0.013802
-0.00441826
0.0059719
0.00783012
0.0127183
0.00158396
-0.00658841
0.00500445
-0.00637826
0.00730713
-0.000928876
-0.00189932
-0.00447894
-0.000906146
-0.00815331
0.00905945
0.00935831
-0.0039744
-0.00179405
-0.00954713
0.0113412
-0.00995365
0.00815959
-0.00429054
0.00892536
-0.00463482
-0.00656658
-0.00304933
0.00961591
-0.0174875
0.0122163
0.00527121
0.0107081
-0.0140767
0.00336855
-0.038495
-0.0200417
0.0744077
0.055871
0.0105479
-0.00245272
-0.00809519
0.0186982
-0.0128227
0.00945426
0.00916594
-0.0186202
0.00988892
-0.00717219
0.002475
0.00741392
-0.00584705
0.00832205
-0.00529284
-0.00662613
0.011919
-0.0036131
-0.00292965
0.00654277
-0.0371573
0.0209525
0.0162048
0.0317466
-0.029329
-0.00241764
-0.00177943
-0.00204472
0.00382415
-0.0353409
0.0233525
0.0119884
0.0052036
-0.0255212
0.0203176
0.000271807
-0.0112951
0.0110233
0.0015944
-0.0120812
0.0104868
-0.0136577
0.00701302
0.00664471
-0.00389792
0.00785869
-0.00396077
-0.00549638
0.0108273
0.00708214
-0.00235966
0.00698148
-0.00462182
0.00260446
0.00459034
-0.00719478
-0.00700912
-0.00199262
0.00900174
0.00335366
-0.00599338
0.00263971
-0.00224136
0.0116199
-0.00937852
0.00688527
0.00641689
-0.0133022
-0.002205
-0.008066
0.010271
0.00460889
-0.00916431
0.00455542
0.00570336
-0.00477436
-0.000929013
-0.00183154
-0.00531304
0.00387182
-0.00572052
0.00534334
-0.00786934
0.00696319
-0.00744983
0.0004067
0.00704313
-0.00816861
0.00836208
-0.000193467
-0.00590184
-0.00380093
-0.0078007
-0.0101879
-0.0023871
-0.00716003
-0.00985047
-0.00143357
-0.00572646
0.00557296
-0.00715784
0.00158488
0.00761277
0.00066705
-0.00496736
0.00824861
-0.00807356
-0.000175041
0.00239421
0.00585439
-0.0115295
0.00261619
0.00891331
-0.00541864
-0.00559097
0.0110096
-0.0206946
0.0113003
0.00939435
-0.0143351
-0.00635952
-0.00416194
0.00987815
-0.0057162
0.00528398
0.00590354
-0.0111875
0.00176569
-0.00854344
0.00677775
0.0270084
0.00719908
0.032212
0.141647
-0.238646
-0.191036
-0.00175427
-0.00744677
0.00920105
-0.00646503
0.00471076
-0.00582125
0.0112326
-0.00541139
-0.00181841
0.00360559
-0.00178718
0.0168872
-0.0137357
-0.00315154
0.000456858
-0.0061463
-0.00654367
-0.0366029
0.0431466
0.0353279
-0.0418716
0.0103717
-0.020022
0.00965028
0.00508065
0.00546927
-0.0105499
0.0191519
-0.011775
-0.00737692
-0.0104087
0.0172066
-0.00679791
-0.012364
0.0266469
-0.0142829
0.0158665
0.03221
-0.00556312
0.00395301
0.00390049
-0.0078535
0.01857
0.0224083
0.0392379
-0.0212707
-0.0179672
0.00934754
-0.0113351
0.00198753
-0.00789589
0.00921304
-0.00131715
-0.0237508
-0.00177044
-0.0117898
-0.017998
0.0162276
0.0169195
-0.0137793
-0.00314024
-0.0277188
-0.035286
0.0630048
-0.0637911
0.0389287
0.0248624
0.0164825
0.000165287
-0.0166478
-0.00844028
0.00493469
0.00350557
0.003096
-0.00480995
0.00171395
0.00276187
0.00270233
-0.0054642
0.00585787
0.00594796
-0.00109462
-0.00485334
0.00340731
-0.00442379
-0.00342388
0.00463607
-0.00822236
0.00358629
0.00793625
-0.00948038
0.00792936
0.00155102
-0.006212
-0.00326837
-0.00258574
-0.00644471
0.00903045
0.000977378
0.0079442
-0.00892158
0.00928819
-0.00831081
-0.00135563
0.0102996
0.00862169
0.000218695
0.00512575
-0.00534443
-0.00441717
0.00463584
0.0119869
0.00187221
-0.0138592
-0.00352515
-0.0142773
-0.0124051
-0.00147049
-0.007211
0.00868148
0.00575248
-0.00722296
-0.00155089
-0.00566011
0.00143926
-0.0105383
0.00909903
0.00436132
0.00501495
-0.00937627
0.00944743
-0.00483855
-0.00389536
0.00426149
-0.00036612
0.00951448
-0.00428775
-0.00522673
-0.00740928
0.00740928
-0.0144902
-0.0236862
0.0381763
-0.00856848
0.00748024
0.00108823
-0.00473863
-0.00172641
0.0260043
0.00346092
-0.0294652
0.0131659
0.0128384
-0.0218559
0.0253168
0.00609741
-0.0038404
-0.00225701
-0.00146089
-0.00520234
0.00666323
0.00463652
-0.007492
-0.00383486
0.0107673
0.00615221
-0.00111094
0.0118783
-0.00907468
0.0152269
0.0106903
0.000534931
-0.0112253
0.00533273
0.00535759
-0.0137691
0.014304
-0.00533223
0.00697973
0.00538266
0.00463158
-0.0100142
-0.0049688
-0.00419275
0.00914492
-0.00172741
0.00426469
-0.00253727
0.00327604
-0.00662483
0.00334879
0.0148285
0.00173622
-0.0165647
0.00367785
-0.0112101
0.00753228
-0.00330157
-0.0036909
0.00699247
-0.00596761
0.00591849
4.91281e-05
-0.048589
0.0674927
-0.0189037
0.00568293
-0.00958179
0.00853679
-0.0030392
-0.00549759
0.00167289
0.0470026
-0.0405151
-0.00648751
0.00369217
0.00226175
-0.00595392
0.00519342
-0.00150125
0.00624576
-0.003984
0.00861446
-0.0221697
-0.0446953
0.0262252
0.0184701
0.0377456
-0.0148344
-0.0229112
-0.020702
0.0235263
-0.00282425
0.0200877
-0.000245861
-0.0198419
0.00895235
0.00535906
0.0105468
-0.00719604
0.0125551
-0.0267796
0.0122699
0.0145097
0.0080753
-0.00927599
0.00120069
0.00271555
0.00535975
-0.00594199
-0.00386796
0.00980996
0.00539919
0.0057265
-0.00959793
-0.00230358
-0.00529728
0.00760085
-0.00915821
0.00452232
0.00463589
-0.0114618
0.00219116
-0.00972058
0.00752942
-0.00872767
0.00622075
0.00250692
-0.00653651
0.00367529
-0.0060454
0.00237013
0.0024108
-0.0100059
0.0075951
-0.00351653
0.00351652
-0.000567162
0.00704576
-0.0064786
0.00180699
0.00576425
-0.00757125
0.0190093
0.0202286
0.00167184
0.0086619
-0.0103337
-0.00332998
0.00332996
0.00428225
0.0035414
-0.00218243
0.00646468
-0.00893024
0.0103695
0.00088909
-0.00638298
0.00549388
0.00641014
-0.00122979
-0.00518035
0.00729923
0.00347681
0.00334489
-0.0068217
-0.00304502
0.00674539
-0.00370037
-0.00567245
0.00628311
-0.000610664
0.00617851
0.000359726
-0.00653824
-0.00591451
-0.00540173
0.0113162
-0.0100864
0.00191643
0.00455121
-0.00646763
-0.00826781
0.0205229
-0.012255
0.00156787
0.00650192
-0.0080698
0.00789167
-0.0063238
0.0026121
-0.00261212
0.00720006
0.00328909
-0.0104892
0.00292769
0.00427237
-0.00386225
0.00715134
0.00952959
-0.00713538
0.00189552
0.00771638
0.00976153
0.00722908
0.00905266
-0.00605481
-0.00299785
0.000948839
-0.00835414
0.00740531
0.00803425
-0.00708541
-0.00173195
0.0077111
-0.00597915
0.004578
-0.00630994
0.00479012
0.00125772
-0.00604784
0.0183305
-0.0158979
-0.00243267
-0.00792182
0.0197055
-0.0117837
0.0281749
-0.0109849
-0.01719
0.0263268
0.00184806
0.0212251
-0.00848915
0.00194355
0.000240419
0.00686361
-0.00710403
0.00642073
-0.00598222
-0.000438513
0.0110209
-0.00776883
0.00243364
-0.0107184
0.0134546
0.00250288
-0.00250289
0.00515713
-0.00584971
0.000692605
-0.0066965
0.00852072
0.00759794
-0.0101395
0.0226103
-0.00829618
0.00685488
-0.0240449
-0.0323411
0.00864363
-0.00201438
-0.00662926
0.00279658
-0.0100529
7.62885e-05
0.00997661
-0.0101819
0.0108721
-0.000690256
0.0315732
0.00160228
-0.00525434
0.0052543
-0.00596466
0.00590393
-0.00639444
0.00514835
-0.0326166
-0.00351864
0.0361353
-0.011408
-0.0212086
0.0331411
-0.0366598
0.00532929
-0.00532915
-0.0182372
-0.00821168
0.0264489
-0.0252429
0.0164573
0.00878558
0.00176559
-0.00176559
0.00306814
-0.00306806
0.00511
-0.000775068
0.00323356
0.0029369
-0.00617046
0.00503524
0.00450706
0.00514384
0.00232207
-0.00746591
0.00146028
0.00573965
-0.00719992
0.00132315
0.0067338
-0.00805695
-0.0387239
0.0204866
0.00358668
0.00358085
-0.00716753
0.0066366
-0.00765482
0.00101822
-0.0041435
0.00711891
-0.00297542
0.00249309
0.0069137
-0.00617337
-0.000740331
0.0029126
0.0040011
-0.00727103
-0.000175741
-0.00208523
0.00208527
-0.0227917
0.0410983
-0.0183065
-0.0345965
0.0122668
0.0223297
-0.0317087
-0.00288784
0.0384599
-0.0261931
0.00636178
-0.00176856
0.00108864
-0.00749055
-0.00421458
0.0117051
-0.0115324
0.00858853
-0.0128031
0.0209068
-0.0148399
-0.00606687
-0.000695251
-0.032125
0.0172851
0.00777492
-0.00424286
-0.00259503
0.00259502
0.00826612
-0.0154622
-0.00975905
-0.00261498
0.012374
0.0261983
-0.0330779
0.00687952
-0.0107539
0.0369522
-0.00257827
0.00863723
-0.00605895
-0.00989711
0.00731884
-0.0042692
0.00785668
-0.00358749
0.00376271
-0.00646311
0.00270036
-0.0122258
0.0124976
-0.00741116
0.00123778
-0.00283316
-0.00685122
0.00164507
0.00705456
-0.00869963
0.00727205
-0.00562699
-0.0157223
0.0169317
-0.0012094
0.00597625
-0.0151071
0.00913085
0.00651549
-0.00955469
-0.00204691
0.00204693
0.00124633
-0.00124633
0.0162712
-0.014175
-0.00209616
0.00846806
-0.00601467
-0.00245339
0.00889256
-0.000424505
-0.00771617
0.00166261
-0.00358892
-0.00412726
-0.00759177
0.0042902
-0.0042244
-0.00723738
-0.00928519
-0.000162208
-0.00467297
0.00483518
-0.0370743
0.0158974
0.0211769
-0.0272882
-0.00805275
0.0012293
-0.00707414
0.00716328
-0.000984778
-0.00342216
-0.00546244
0.0088846
0.0047438
0.0094164
-0.0141602
0.00730555
0.00319312
-0.0104987
0.00398375
-0.00608006
0.00209631
-0.000550501
0.00453425
-0.00291175
0.00698493
0.00672536
0.000109623
0.0142819
-0.0143916
-0.0156127
-0.00198759
0.00198759
0.000252686
-0.00224028
-0.0135584
0.00747637
-0.00562923
0.00647681
-0.000847579
-0.000687229
-0.004942
0.00190953
-0.00190953
-0.000177498
-0.00542029
0.00559779
-0.00454507
0.00676131
0.00698269
-0.00795368
0.000970988
-0.0303107