/*--------------------------------*- C++ -*----------------------------------*\
  =========                 |
  \\      /  F ield         | OpenFOAM: The Open Source CFD Toolbox
   \\    /   O peration     | Website:  https://openfoam.org
    \\  /    A nd           | Version:  6
     \\/     M anipulation  |
\*---------------------------------------------------------------------------*/
FoamFile
{
    version     2.0;
    format      ascii;
    class       volVectorField;
    location    "900";
    object      U;
}
// * * * * * * * * * * * * * * * * * * * * * * * * * * * * * * * * * * * * * //

dimensions      [0 1 -1 0 0 0 0];

internalField   nonuniform List<vector> 
29874
(
(7.53323 0.0626309 1.07908e-16)
(5.39415 0.0281727 -9.96999e-17)
(5.42427 -0.121061 1.9804e-16)
(7.11023 -0.0798505 -1.16501e-16)
(7.81337 -0.118994 0)
(7.43253 0.00457652 -9.69337e-17)
(4.77903 0.0941486 7.62787e-18)
(7.12408 0.0172834 2.4176e-18)
(7.44901 -0.00397445 -1.30587e-17)
(7.19175 0.211815 -1.64236e-17)
(7.20838 -0.11576 0)
(7.2389 0.103467 -3.55649e-17)
(4.44946 -0.0539086 9.22275e-17)
(8.27526 0.0489462 0)
(6.72518 0.203001 1.06363e-16)
(6.60815 0.136849 0)
(4.26125 -0.0199107 0)
(7.80529 0.211247 -1.38995e-16)
(4.96175 -0.04079 -1.43027e-16)
(7.99517 -0.0693675 -3.57919e-18)
(7.11891 -0.0228835 3.52425e-17)
(7.07121 -0.0256258 7.74965e-18)
(7.03445 0.0601131 -9.67095e-17)
(7.52491 0.0373065 0)
(5.75653 0.29431 0)
(7.77215 -0.00964811 -2.58951e-17)
(7.97559 -0.0447759 -8.97593e-17)
(5.06637 0.120392 1.25061e-16)
(5.32807 0.122826 2.01906e-17)
(4.94803 -0.118632 4.76277e-17)
(8.07638 -0.0975574 -2.81114e-17)
(5.34721 -0.09818 -2.70438e-16)
(7.85869 0.0534802 0)
(5.18818 -0.0340141 -8.52781e-17)
(7.39211 0.13177 3.42672e-17)
(5.48157 0.109504 -1.76722e-17)
(7.04123 -0.00234058 0)
(7.28648 0.314279 -7.08599e-18)
(7.51316 -0.10422 -6.50627e-17)
(5.35164 0.0229472 0)
(7.00039 0.0104415 -4.06316e-17)
(7.02985 -0.0193163 8.2886e-17)
(7.30956 0.00825121 0)
(5.62887 0.0458573 -1.08177e-17)
(8.03506 -0.138165 8.28816e-17)
(7.43545 0.046252 0)
(4.74928 -0.149993 0)
(8.48958 0.0405284 0)
(7.26048 -0.0602472 4.25086e-18)
(7.17475 -0.113341 -6.02093e-17)
(4.49007 0.141202 -9.09152e-17)
(7.88444 -0.100567 0)
(6.7786 -0.00138975 -4.48801e-17)
(6.60796 0.0694145 3.92288e-17)
(7.6775 0.156539 -1.84987e-17)
(7.72287 -0.010465 5.22884e-17)
(4.68807 -0.0787176 0)
(8.14761 0.0328182 0)
(7.12406 -0.0632067 0)
(7.04555 0.0842365 -7.86804e-18)
(7.27188 -0.129288 1.19961e-18)
(7.23678 0.0157222 -7.50474e-17)
(7.22228 -0.232644 -1.2149e-18)
(7.4853 0.014874 0)
(5.81283 0.0537546 -4.38954e-17)
(7.46534 0.0318521 -3.79878e-17)
(7.75199 0.142398 -1.99396e-20)
(7.60528 0.00636952 7.51032e-17)
(7.64654 -0.0929124 4.04486e-17)
(7.49812 -0.0804713 3.93173e-17)
(8.25135 -0.138728 3.75876e-17)
(7.61448 0.0177264 5.01235e-17)
(7.53143 0.104073 -3.25263e-16)
(5.65332 -0.133001 4.03323e-16)
(7.04007 -0.1298 3.86754e-17)
(8.07364 0.12107 0)
(7.8117 -0.10987 -1.67548e-17)
(8.01174 -0.0995238 1.68893e-17)
(4.99867 0.111249 6.4894e-16)
(7.35598 0.0965779 -1.82359e-16)
(5.39258 -0.0938197 -9.62198e-17)
(7.11294 -0.149999 1.05838e-18)
(6.96786 0.156407 0)
(7.43697 0.19685 -3.70399e-17)
(4.60636 -0.365615 0)
(5.06965 -0.223161 -4.03257e-17)
(7.36337 0.00952508 -6.70203e-19)
(7.03589 0.0421043 2.08674e-17)
(7.94938 -0.10844 9.62075e-17)
(7.55393 -0.067495 5.12492e-17)
(3.80617 -0.693847 -4.41202e-18)
(7.00489 0.0786283 4.8057e-17)
(6.95646 0.132724 -2.77641e-17)
(7.46459 -0.0339716 2.8268e-17)
(7.20613 -0.124828 0)
(6.68549 0.0992742 0)
(7.09973 -0.226826 -1.9808e-17)
(4.62875 -0.00263973 8.82348e-18)
(3.48157 -0.559513 -2.16259e-17)
(6.48179 -0.0609184 1.19916e-17)
(7.52475 0.0504444 -2.64265e-18)
(7.01997 0.0947415 1.26129e-17)
(6.99048 0.0909526 0)
(7.35429 0.0832344 -8.21426e-17)
(7.1035 0.0915172 -6.15896e-17)
(3.5227 -0.389859 3.96263e-17)
(3.92875 -0.508974 -3.00942e-17)
(7.50352 0.00734089 6.02133e-18)
(7.592 0.0135435 0)
(7.25005 -0.12995 -9.08644e-18)
(3.87668 0.137676 -2.71122e-17)
(7.95203 -0.173709 8.48915e-17)
(8.01143 -0.175267 -9.09266e-17)
(6.96825 0.120964 0)
(6.97432 0.134054 0)
(6.98381 0.103381 -5.55344e-17)
(6.8813 -0.306156 8.31153e-18)
(7.23365 -0.183436 1.0397e-16)
(0.508789 0.0939814 -5.84458e-17)
(7.04212 0.0855081 2.47776e-17)
(6.97424 0.131401 4.23618e-17)
(8.25009 -0.199854 -1.25604e-16)
(7.20067 -0.103045 -1.03587e-19)
(7.14548 -0.1367 4.1094e-18)
(7.25394 -0.132182 7.23951e-18)
(6.64905 0.159971 -4.46957e-18)
(7.47913 -0.144222 0)
(7.20562 0.231461 -2.00866e-17)
(7.02163 0.110169 -4.90847e-17)
(6.56123 -0.275046 4.15711e-17)
(6.99953 0.00702452 0)
(6.75369 -0.264561 2.96472e-17)
(7.13808 -0.122691 -5.22368e-17)
(7.07923 0.0950589 9.905e-17)
(7.28903 0.117335 4.15104e-17)
(7.11032 0.056774 -3.33909e-17)
(7.25351 0.118382 7.59427e-17)
(7.04707 0.00702307 -9.66978e-18)
(7.35297 0.275981 8.08959e-19)
(7.10645 -0.161035 5.99008e-17)
(7.70863 -0.264382 -7.12308e-18)
(7.7664 -0.0394818 0)
(7.02194 -0.194876 -1.55861e-17)
(7.47339 0.266014 -2.34451e-17)
(7.2109 -0.0567655 -5.4979e-17)
(7.14691 0.188306 -8.25756e-18)
(7.36071 0.0330476 3.72851e-17)
(7.31915 0.0714481 5.71597e-17)
(7.00348 0.00656429 -3.0699e-18)
(6.63523 0.123236 -5.38876e-18)
(7.80277 0.0898843 3.3715e-17)
(7.88055 -0.114749 9.31715e-18)
(6.48662 0.196703 0)
(6.93336 -0.0947279 1.37691e-17)
(7.3827 -0.0747551 2.44469e-17)
(7.02432 0.0602918 3.82314e-17)
(7.07046 -0.0139498 2.26526e-17)
(7.70529 -0.189848 -3.7122e-17)
(7.93874 -0.0980624 3.87542e-18)
(7.96011 -0.134254 0)
(7.71217 -0.140416 -7.0663e-17)
(7.22719 0.100835 1.9225e-16)
(6.89938 0.15046 -6.39691e-16)
(7.65785 -0.171226 0)
(7.76704 -0.177619 0)
(7.75251 -0.157283 7.11162e-18)
(7.69112 -0.168542 0)
(7.17404 -0.0712164 0)
(7.06336 -0.017112 -5.83952e-17)
(7.50331 -0.183247 2.12776e-17)
(7.75963 -0.110636 0)
(7.67892 -0.158824 0)
(7.5956 -0.121695 -1.19376e-17)
(4.38988 -0.0163999 -3.69426e-17)
(4.07198 0.108256 7.26986e-18)
(7.49852 -0.140142 0)
(7.30834 -0.165684 1.76122e-17)
(1.14967 -0.0997122 -5.03498e-17)
(6.93689 0.0253107 -1.58461e-16)
(6.78605 -0.0218158 8.08631e-17)
(1.16458 -0.0648346 0)
(1.13726 0.0191076 0)
(5.003 -0.0787337 -2.15819e-17)
(6.92019 0.117378 -3.33414e-17)
(6.57908 -0.0344085 1.60953e-18)
(8.24853 0.0629944 -3.7219e-17)
(7.0297 0.131504 -1.15301e-17)
(7.01938 0.113278 -8.69773e-19)
(7.03465 0.0813202 3.95521e-18)
(6.98308 0.125992 2.08872e-17)
(6.98558 0.0994038 1.52894e-17)
(8.34258 -0.122723 1.05049e-16)
(6.89673 -0.125821 7.86236e-17)
(6.71551 -0.212475 -4.16071e-17)
(5.19408 0.0269945 -4.76838e-17)
(7.07548 0.0703195 2.30576e-17)
(7.03614 0.0969678 4.88424e-17)
(7.61561 0.160023 0)
(1.24356 0.0132311 7.35274e-17)
(1.58059 0.00890922 0)
(7.73986 0.196659 7.19949e-18)
(8.09903 -0.0675835 0)
(7.63029 0.447907 -1.48151e-17)
(7.59625 0.279679 -1.44275e-16)
(6.97117 0.0909429 0)
(6.79046 0.114718 4.8388e-17)
(6.89425 0.0918288 7.14515e-17)
(7.38033 0.0860085 3.35338e-16)
(7.09095 -0.18029 -5.82419e-17)
(6.88522 -0.24799 -3.17065e-17)
(7.11815 -0.0098324 4.42376e-17)
(7.3079 0.0288793 -2.70984e-17)
(6.36724 -0.134453 -6.5115e-17)
(6.8027 0.0908259 -1.4263e-16)
(7.27433 0.217143 2.99714e-17)
(7.17569 -0.213249 -5.20906e-17)
(7.26238 -0.185907 -5.03857e-18)
(7.20188 -0.158017 -2.63147e-17)
(7.2794 -0.134427 1.66321e-17)
(7.4559 -0.140944 0)
(7.67485 -6.71193e-05 -1.00323e-16)
(8.30375 -0.0638198 -3.16169e-17)
(6.89578 0.0110239 5.26192e-17)
(7.42314 -0.0561888 -4.0113e-18)
(7.0011 0.0539284 -6.41196e-17)
(7.31829 0.0536072 0)
(7.6027 -0.0157852 6.20234e-18)
(7.45408 -0.122715 -6.15527e-18)
(7.79904 0.167021 -2.79346e-17)
(6.98927 0.232455 -1.93888e-17)
(7.00363 0.0230838 0)
(7.00147 0.0447845 5.23767e-17)
(7.39423 -0.0841167 -1.20797e-17)
(7.25836 -0.0583348 1.12304e-17)
(6.79882 -0.0914192 4.23537e-17)
(6.92751 -0.0830404 0)
(6.49932 -0.239518 0)
(7.76597 -0.112728 -2.09323e-17)
(7.59411 -0.130647 8.46409e-18)
(7.82386 0.0777896 -7.85939e-18)
(8.02066 -0.0778706 5.86998e-17)
(2.48275 1.30465 -7.09779e-18)
(2.9384 -0.468783 7.51635e-18)
(6.08724 2.43691 -2.47139e-18)
(6.19388 2.48566 0)
(2.96495 -1.36797 1.34259e-17)
(2.88584 -1.34774 1.40423e-17)
(7.53452 -4.16032 4.5267e-18)
(6.61719 1.14323 1.57422e-17)
(7.20774 -1.07392 1.87736e-19)
(4.24128 -0.7415 -2.17349e-17)
(6.60091 1.65621 1.00295e-18)
(4.60346 -1.28662 -1.66028e-17)
(4.30946 -0.675914 0)
(7.09496 -0.314007 -6.7659e-18)
(3.20418 -0.456654 -2.26834e-17)
(4.59863 -1.36677 -1.16799e-18)
(0.700516 0.350259 6.40708e-17)
(7.27304 -1.04177 2.33518e-19)
(4.38656 0.252882 2.33646e-18)
(5.96837 -3.61354 9.75731e-19)
(4.25225 -0.367927 -3.2755e-19)
(4.61124 -1.45208 0)
(6.55946 -3.37686 1.41375e-18)
(6.78423 -3.56621 5.6341e-18)
(6.50901 -4.0581 2.03662e-18)
(6.60961 -4.06094 -1.27619e-18)
(6.2541 2.21884 -1.90765e-18)
(6.19636 2.32078 2.07209e-18)
(0.751419 -0.391542 0)
(3.11688 -1.34083 2.76543e-18)
(3.02785 -1.28589 -1.93975e-17)
(3.75366 -0.666671 2.10938e-17)
(5.7235 -1.61472 -1.09767e-17)
(6.58563 2.76572 2.02222e-19)
(6.09022 2.75824 1.08727e-19)
(5.55605 -4.00676 1.31449e-18)
(1.53181 0.590999 -1.89695e-17)
(6.04718 2.38475 -3.30484e-18)
(6.39743 -1.57269 0)
(6.47209 -1.46373 1.55657e-20)
(6.8538 1.772 -1.19979e-19)
(6.77778 1.77189 0)
(6.45306 1.98802 -2.49954e-18)
(6.50079 2.03126 0)
(6.404 1.28139 0)
(6.68001 1.86223 -1.37117e-18)
(6.74038 1.85868 1.18801e-18)
(3.221 -0.58651 3.14338e-17)
(3.33277 -0.632958 3.08113e-17)
(5.9098 2.69664 -2.27175e-18)
(6.22799 2.4761 0)
(6.20489 2.48318 0)
(7.4285 -3.44921 4.5218e-18)
(7.34989 -3.8405 7.14421e-18)
(4.63324 -0.510895 0)
(4.57722 -0.203588 0)
(5.74899 -3.85801 1.36403e-18)
(4.40228 -1.05261 4.18973e-17)
(3.87245 -0.902576 -1.22278e-17)
(3.29564 -0.619098 -3.91387e-17)
(4.09077 -2.2057 2.56443e-18)
(6.27851 2.14692 0)
(3.90233 -1.55972 -3.14747e-18)
(6.18447 2.46849 4.0532e-19)
(6.21224 2.35443 -5.13387e-19)
(3.17369 -1.24863 9.92501e-18)
(6.79769 -0.39825 0)
(5.61288 -3.83847 0)
(2.59649 -0.00433044 0)
(6.44913 -4.43379 1.38993e-18)
(6.47166 -4.39556 -6.82232e-19)
(5.62248 -3.89959 0)
(5.7275 -3.94856 -2.50692e-18)
(5.53122 -3.92011 1.27382e-18)
(4.42075 -0.317011 1.08015e-18)
(4.49399 -0.463408 1.71966e-21)
(6.58029 -2.81214 -1.90492e-19)
(6.18913 2.21978 3.26056e-19)
(6.16007 2.28285 4.97438e-18)
(6.71671 -3.76576 2.90878e-18)
(6.70219 -4.5822 0)
(3.10272 -1.48393 -7.54318e-18)
(3.04833 -0.305066 0)
(6.11234 2.2823 -5.34124e-18)
(6.0981 2.31804 0)
(6.08223 2.2259 0)
(7.07188 0.253704 -1.83809e-17)
(4.5755 -0.285995 -2.87761e-18)
(4.61944 -0.43276 -3.11009e-18)
(6.58861 0.505904 -7.85674e-17)
(6.69825 0.388021 -4.95723e-17)
(4.071 0.884812 2.10313e-18)
(3.98581 1.00729 -2.67008e-18)
(6.55058 -4.40201 0)
(6.10224 -3.92697 1.44251e-19)
(6.23708 2.41496 0)
(6.30066 2.38111 0)
(6.27428 2.35735 0)
(6.26927 2.43005 0)
(3.01223 -1.17576 -5.54552e-18)
(5.40591 -3.88212 0)
(3.00116 -0.480233 1.0101e-17)
(3.08797 -0.476766 -6.47339e-18)
(3.0543 -0.401424 -1.79493e-17)
(3.0397 -0.522265 -5.28081e-18)
(6.38493 2.2909 5.66581e-19)
(6.34378 2.26127 3.99626e-18)
(6.61994 -4.48967 1.48221e-18)
(6.20412 2.42721 3.74283e-19)
(6.63049 1.54686 9.70841e-18)
(7.4831 -0.449103 0)
(6.69737 -2.61484 1.9189e-17)
(7.2367 -3.16331 4.06323e-18)
(6.09832 -2.15714 0)
(7.06672 -0.34584 2.84039e-18)
(3.22563 -0.333135 0)
(3.24365 -0.109213 0)
(5.72032 -0.796127 0)
(0.69197 -0.216461 5.98431e-17)
(6.94452 -3.04109 -6.4818e-19)
(2.78035 -1.87099 -1.14419e-18)
(7.24996 -3.01535 0)
(3.02784 -0.629284 4.66857e-18)
(3.01971 -0.82654 1.00512e-17)
(6.23633 2.45694 -7.90744e-20)
(6.22489 2.43877 -1.38406e-20)
(6.2644 2.44821 1.13444e-19)
(6.17516 0.330298 -7.97575e-17)
(3.4374 -0.156671 3.07996e-17)
(3.30735 -0.312866 2.21467e-18)
(3.45441 -0.316627 -3.41692e-17)
(3.32322 -0.148021 -2.32897e-18)
(6.98926 0.172902 2.08596e-17)
(7.05381 -0.252006 -3.03074e-18)
(3.47491 -0.0874732 -2.48331e-17)
(3.75939 0.0593902 -5.92155e-18)
(3.7271 -0.111335 1.09072e-18)
(3.62323 0.631848 0)
(3.83074 0.37441 2.64344e-17)
(2.93934 -1.16322 0)
(2.92379 -1.06868 7.88935e-21)
(6.60841 -0.581756 7.69631e-18)
(6.65937 -0.36747 3.25906e-18)
(6.18445 2.35674 -5.41324e-19)
(6.20951 2.40319 5.70091e-19)
(3.21788 -0.233812 2.11637e-17)
(6.34503 2.39046 0)
(6.37908 2.34834 0)
(6.35649 2.46447 0)
(7.01577 -3.84804 6.23847e-18)
(7.23373 -3.93113 0)
(2.85022 -0.448502 -6.43945e-18)
(7.22114 -3.25331 -6.49025e-18)
(6.91849 -3.45076 6.37577e-18)
(6.53333 -4.49457 0)
(6.48248 -4.44805 -1.4665e-18)
(6.5615 -4.46432 6.1282e-20)
(6.46062 -4.4784 0)
(6.71799 0.283725 0)
(6.59125 -3.92126 9.95484e-20)
(6.64339 -4.01281 1.35892e-18)
(6.70762 -3.86963 -1.36364e-18)
(6.42844 -0.433032 -4.09709e-17)
(6.44774 -0.555409 5.56127e-17)
(6.5163 -0.373186 -6.24437e-17)
(3.07929 -0.256361 5.59108e-18)
(3.16991 -0.160209 -5.77085e-18)
(3.0993 -0.156827 -2.91317e-18)
(3.16036 -0.263513 2.80015e-18)
(4.35107 -0.411964 -3.18661e-17)
(4.12479 -0.523408 1.11053e-18)
(4.24998 -0.541998 0)
(4.28628 -0.312136 1.93683e-17)
(6.83552 0.573138 1.9072e-17)
(3.53262 -3.08071 3.53951e-18)
(3.8211 -2.94306 1.49041e-18)
(3.31539 -1.80233 6.13787e-20)
(3.16517 -1.83743 -5.30501e-18)
(3.06522 -0.132234 -5.14258e-18)
(3.07076 -0.0146339 5.51154e-18)
(2.97209 -0.152802 0)
(4.09746 0.497499 0)
(3.82852 0.793191 9.25995e-18)
(4.29347 -0.231125 0)
(4.0857 -0.0195701 0)
(4.01143 -0.210788 0)
(4.30985 -0.100381 0)
(6.45666 -1.27572 4.6017e-20)
(6.45758 -1.34186 0)
(6.35228 -3.82137 1.21422e-18)
(6.36338 -3.9282 0)
(6.46926 -3.87585 1.82001e-19)
(6.27499 -3.81502 -3.38534e-18)
(3.92029 1.06359 0)
(6.4742 -3.45847 -5.19875e-18)
(6.16222 -3.58609 0)
(3.86371 1.50724 -1.29184e-18)
(4.03913 1.11075 0)
(3.677 -0.375971 -2.46398e-17)
(3.91763 -0.225402 0)
(3.76287 -0.181645 0)
(3.89422 -0.375681 3.0425e-17)
(3.36224 -1.13291 4.25501e-17)
(3.30224 -1.25659 -1.52766e-17)
(6.92631 0.140215 -4.97449e-18)
(6.56959 -0.0678927 9.41285e-17)
(6.52658 -0.177012 0)
(6.48198 -0.133472 9.37101e-17)
(6.6086 -0.154118 0)
(3.30464 -1.02799 -1.84441e-17)
(3.38273 -0.892012 0)
(3.1824 -0.987902 0)
(4.41734 -1.09479 -2.5806e-17)
(4.58738 -0.726124 -1.15748e-17)
(4.40226 -0.823946 1.19617e-17)
(6.2952 -4.04484 9.94933e-19)
(6.35046 -3.98313 1.61943e-18)
(6.41286 -4.02217 -1.01352e-18)
(6.25401 -3.96573 -2.11903e-18)
(6.97319 -3.7722 -7.97247e-18)
(6.85167 -3.62471 -5.0166e-18)
(7.02826 -3.6723 1.86718e-18)
(6.81231 -3.73146 -3.57394e-18)
(4.52705 -0.983928 0)
(4.53393 -1.08105 0)
(4.43164 -0.983421 -3.05262e-19)
(6.08588 2.81836 4.45509e-20)
(7.34948 -0.183739 -2.93733e-17)
(7.16935 -0.215219 3.37443e-18)
(7.24282 -0.205208 1.82773e-17)
(7.27661 -0.185956 -1.23484e-17)
(6.35273 2.96522 -7.91616e-20)
(5.2176 -0.149789 5.26501e-17)
(6.07592 2.38712 -1.74505e-18)
(6.08851 2.41292 -8.18295e-19)
(6.10784 2.35431 1.45011e-18)
(3.36244 -1.38231 0)
(3.28147 -1.53136 0)
(3.54837 -1.40327 2.66257e-17)
(5.73413 -1.26074 6.62415e-18)
(3.49944 0.3853 0)
(3.67454 0.386655 2.53133e-19)
(3.60287 0.305916 0)
(3.57691 0.518464 -1.10058e-17)
(6.9343 0.437704 2.46314e-17)
(3.02908 -0.909679 2.92625e-18)
(2.9342 -1.01835 -6.5942e-18)
(2.93891 -0.947775 3.47619e-18)
(3.02918 -1.00399 0)
(8.03341 0.201479 -6.53017e-17)
(0.631268 -0.104626 1.14768e-16)
(7.77176 -0.346398 4.5613e-17)
(8.07746 -0.0214644 0)
(1.62886 -0.145337 -3.96044e-17)
(7.08707 0.29346 -1.58109e-17)
(4.67088 0.0634497 -8.09567e-17)
(6.99741 0.0215805 3.88794e-17)
(7.0072 0.109613 -2.52013e-17)
(7.0065 0.0837744 -5.03507e-17)
(7.9731 -0.229435 0)
(3.29314 -0.444238 -3.45359e-18)
(6.75244 0.286201 0)
(6.79766 0.239148 1.88172e-17)
(6.02501 -0.0901374 0)
(6.30044 0.190896 -9.29387e-17)
(6.19003 0.237007 4.93988e-17)
(6.50486 0.0731984 2.62035e-17)
(6.43175 0.116474 0)
(2.72785 -0.251503 7.53829e-18)
(6.91619 0.178816 -4.50269e-17)
(6.89363 0.212846 -4.93985e-17)
(5.3751 -0.174902 -3.26144e-17)
(6.9557 0.3004 1.88091e-17)
(6.94451 0.353502 1.25203e-17)
(2.67022 0.459135 3.17502e-17)
(7.00934 0.0766988 4.45196e-17)
(7.70428 0.343793 -1.93694e-17)
(0.497776 0.146857 -7.12894e-17)
(7.00139 0.146371 -1.22511e-17)
(6.96862 0.233104 3.04263e-17)
(7.19344 0.286613 0)
(5.408 -0.338943 -6.48462e-17)
(7.40824 -0.210103 9.26441e-17)
(2.93978 -0.296428 3.66543e-18)
(3.08263 -0.198435 -2.02144e-17)
(6.88269 0.891738 1.31484e-17)
(7.01189 0.12041 3.32875e-17)
(7.33365 -0.256773 -2.45627e-17)
(7.39049 -0.273526 -8.60034e-17)
(7.34172 -0.329604 2.82278e-17)
(7.62548 -0.199859 4.15263e-17)
(6.57228 -0.411666 7.18457e-18)
(6.55146 -0.516658 -9.90871e-18)
(7.11889 -0.180183 8.86891e-19)
(7.10359 -0.219831 2.32776e-17)
(7.05655 0.211079 -9.22013e-18)
(6.35729 -0.300369 -7.06305e-17)
(6.71335 -0.42373 0)
(6.686 -0.542789 0)
(6.95715 -0.152733 -5.12444e-18)
(6.85022 -0.15717 0)
(0.47186 0.136735 0)
(2.76577 0.403152 1.84081e-17)
(7.56309 -0.150567 3.22334e-17)
(7.64635 -0.124181 5.77669e-18)
(7.25766 0.404973 1.83639e-19)
(7.06891 -0.219754 0)
(7.13351 -0.189017 0)
(6.69245 0.228482 -1.77224e-17)
(7.59546 -0.387607 0)
(7.00226 0.0700416 -2.34288e-17)
(6.99656 0.0872008 8.44996e-17)
(7.01324 0.17953 -2.0995e-18)
(7.225 -2.95914 1.45386e-17)
(6.5668 -2.34277 -1.15785e-17)
(6.5473 -2.21938 1.07433e-17)
(5.6567 0.0825015 3.94384e-17)
(7.00946 0.154243 0)
(4.94638 -0.113332 -2.34327e-16)
(7.38167 -0.358427 0)
(6.65489 -0.0678831 -2.40258e-17)
(6.40722 -0.0757143 1.16143e-17)
(6.28114 -0.0786445 1.11385e-17)
(7.11165 0.335571 -2.65523e-17)
(2.73744 -0.517502 0)
(7.48323 -0.381666 8.31404e-18)
(7.4363 -0.347918 -3.93399e-17)
(4.72603 -0.142343 0)
(4.92093 -0.133091 0)
(2.88803 -0.923723 8.96732e-20)
(7.81645 0.236757 -9.73452e-18)
(7.22266 0.217474 -3.83842e-17)
(7.30926 -0.0335972 0)
(8.37802 -0.057185 -1.08148e-16)
(7.16363 0.372658 0)
(7.12914 0.330391 1.27977e-17)
(6.94287 0.193962 -3.36614e-17)
(4.70914 -0.511225 0)
(8.17005 0.112231 -4.09163e-17)
(7.96623 0.1935 -8.56798e-17)
(5.95344 0.0218859 4.92751e-17)
(5.79829 0.0943782 -5.77243e-17)
(7.34159 0.0954397 -1.27873e-17)
(6.3419 2.12919 1.599e-18)
(6.37811 2.03691 -1.74609e-18)
(5.94364 -0.140409 -1.99533e-17)
(7.00077 0.0211351 0)
(6.98493 -0.321823 -2.38953e-18)
(7.06107 -0.250116 -2.442e-18)
(7.00545 -0.27874 0)
(8.15943 -0.0244972 1.29699e-17)
(8.08983 0.0396396 -2.59452e-17)
(3.90067 0.501726 0)
(3.78497 0.664513 2.02398e-17)
(6.37901 2.17273 2.8357e-18)
(6.46379 2.12862 -2.62037e-18)
(6.78208 0.0419965 1.48422e-16)
(6.56491 0.0444765 5.47295e-17)
(0.831191 0.184555 9.61799e-18)
(5.15447 -0.0494343 5.12584e-17)
(7.07801 -0.00605505 -9.57367e-17)
(6.94192 0.136709 -4.06847e-17)
(6.87509 0.15694 6.65876e-17)
(6.82554 0.19127 -5.8239e-17)
(7.00958 0.0554829 0)
(7.00207 0.0439349 -1.19157e-17)
(6.92949 -0.357347 2.3984e-18)
(6.93421 -0.303557 -8.33616e-18)
(7.00569 -0.262471 0)
(3.5835 -1.31657 -2.90986e-17)
(3.48834 -1.14781 -8.21595e-18)
(3.58036 -1.02289 0)
(6.88239 0.176059 -7.01294e-17)
(6.84626 0.244626 -3.87819e-17)
(6.86961 0.211179 4.63523e-17)
(6.81596 0.259817 6.29518e-17)
(7.84707 0.358617 1.02817e-16)
(7.79651 0.311039 -4.44562e-17)
(7.83841 0.236329 0)
(6.77822 -0.0821719 2.89449e-17)
(2.99486 -1.49775 -7.37729e-18)
(6.60613 0.10274 -2.6271e-17)
(6.5696 0.15126 4.46381e-18)
(6.9433 0.0582997 1.13818e-16)
(7.26832 -0.0830991 1.37065e-16)
(3.57417 -1.57719 0)
(3.37587 -1.65876 4.8035e-18)
(5.62658 -0.0478115 -9.34034e-17)
(5.45822 -0.0644297 3.85949e-17)
(7.37364 0.101306 0)
(6.83792 -0.0846137 8.83065e-17)
(7.51682 0.0752519 -4.84707e-17)
(7.33576 -0.164315 0)
(7.5253 -3.83327 8.71955e-18)
(7.40804 -3.52348 -9.04495e-18)
(5.04538 0.0669594 0)
(5.21149 0.00698379 -5.01369e-17)
(5.3611 0.0755564 3.39989e-17)
(4.18993 0.304048 0)
(4.35381 0.26087 2.19605e-17)
(6.85786 0.279079 -1.60858e-17)
(6.84528 0.320783 -1.46719e-17)
(6.81612 0.334944 0)
(7.96309 -0.212809 -7.3548e-17)
(7.05384 0.0106047 0)
(6.96885 -0.00496836 -4.04706e-17)
(6.49653 -0.00738284 -1.70236e-16)
(6.33079 -0.0803523 0)
(6.3999 -0.00394506 1.02055e-17)
(7.11851 0.257491 1.77094e-17)
(7.12334 0.294298 3.31317e-18)
(6.21581 -0.0592932 0)
(6.19776 0.0390034 -2.51351e-17)
(6.08778 0.093334 -1.1558e-16)
(7.01315 0.029885 0)
(7.55086 -0.353972 0)
(7.68008 -0.303847 0)
(7.67879 -0.276159 0)
(0.861973 -0.120543 -5.01863e-17)
(2.70389 0.400948 -8.82794e-18)
(7.12007 -0.248337 0)
(7.08432 -0.287599 1.196e-17)
(7.04929 -0.281757 -7.52936e-18)
(3.60654 -0.723144 6.23937e-18)
(3.5239 -0.879978 0)
(7.72105 -0.119855 6.56631e-18)
(7.97677 0.074318 6.44964e-17)
(7.71723 0.151747 0)
(9.51872 0.463514 1.10163e-18)
(9.476 0.532546 0)
(5.92123 1.44577 1.58645e-19)
(6.09523 -4.45082 1.10076e-20)
(6.64642 0.567673 -7.28804e-17)
(3.88017 0.356002 1.97944e-18)
(6.40574 1.39744 -3.28596e-20)
(2.87453 0.516824 6.79729e-18)
(4.13023 -0.63234 0)
(6.11226 3.16855 1.55416e-19)
(5.82434 -3.21229 0)
(5.84903 -3.29929 0)
(6.94239 -4.69484 0)
(6.24532 2.2374 0)
(6.24726 2.22541 3.67322e-20)
(6.07357 2.34007 0)
(6.06888 2.36363 -2.1208e-21)
(6.01299 1.104 0)
(7.6945 0.43907 -4.99387e-19)
(6.54668 -1.78745 0)
(4.19918 -2.33991 1.32652e-18)
(4.58171 0.356698 2.34566e-19)
(6.09078 -1.95496 4.89437e-20)
(6.11853 -2.00624 -6.15624e-20)
(6.75343 -4.63524 -1.56963e-19)
(6.75421 -4.63434 0)
(6.81136 1.25156 0)
(8.23658 1.0152 0)
(1.5348 -1.70825 4.27558e-17)
(2.74782 0.100141 -2.21247e-18)
(2.26518 -2.53901 -6.40482e-18)
(2.11639 -2.46255 0)
(6.47486 2.74486 1.59004e-20)
(7.27601 0.958508 0)
(7.26985 0.997489 0)
(4.99238 1.18765 0)
(3.80369 -2.77246 0)
(7.22532 0.728831 -2.77343e-20)
(2.5233 -0.845527 -5.20118e-18)
(7.07814 1.40564 2.98194e-20)
(3.83152 -1.90028 -1.75192e-18)
(5.98608 1.12262 -1.28256e-22)
(4.21414 1.07958 0)
(4.19169 1.03062 0)
(6.50942 2.96253 0)
(7.80368 0.335452 -4.85163e-19)
(6.49517 -4.56371 7.30539e-19)
(3.44493 -3.73616 1.96409e-18)
(3.63037 -3.47079 3.86197e-20)
(6.84699 1.23824 0)
(8.20978 -0.426735 0)
(6.05719 3.19609 -3.9104e-19)
(6.00744 3.15572 0)
(5.93305 2.96952 8.0257e-19)
(6.69039 -0.772757 1.95465e-17)
(7.80573 0.643705 0)
(7.15929 1.12879 -6.69413e-20)
(6.69063 -0.871273 2.23983e-17)
(6.07327 3.56696 -1.33184e-21)
(6.41331 -1.76025 -4.85557e-20)
(6.40761 -1.70767 5.76514e-20)
(6.9373 -4.62997 8.60152e-19)
(6.95829 -4.6182 2.94396e-18)
(7.24917 0.865907 -4.78049e-20)
(7.24802 0.812189 -1.32222e-20)
(8.41321 -0.162354 1.36459e-18)
(6.18717 2.20795 0)
(6.22664 2.21734 -3.4133e-20)
(8.81562 1.04284 1.98853e-18)
(6.33676 1.26162 2.96953e-20)
(5.57502 -4.21034 1.70612e-18)
(5.22254 -2.88763 -2.05479e-18)
(5.84725 3.12836 -3.0665e-20)
(6.21659 -2.11666 1.4534e-20)
(7.56948 0.387587 0)
(5.7189 -2.31653 4.25309e-18)
(6.26242 0.890832 -7.55666e-18)
(6.07757 -1.15137 0)
(3.60902 -1.3816 3.22095e-17)
(8.86242 0.0978548 2.85989e-20)
(3.13019 2.07528 -2.97371e-18)
(5.69636 2.51424 1.44546e-18)
(5.64488 2.47913 -1.41477e-18)
(7.169 1.28263 0)
(4.34231 -0.753738 -2.97856e-19)
(4.40721 -0.926772 -2.71163e-19)
(6.19976 2.33859 2.09571e-19)
(6.15153 -2.12513 4.00236e-20)
(4.14422 1.72465 -2.93244e-19)
(2.88647 -0.0652685 6.5088e-18)
(2.95628 0.0986784 1.17355e-17)
(6.84992 -0.994816 1.73657e-19)
(6.06977 1.27991 1.22076e-19)
(6.09644 1.29543 -1.98947e-19)
(5.84719 -4.3864 -8.8552e-19)
(5.74111 -4.35331 -1.99327e-20)
(8.17866 0.391122 3.76319e-19)
(8.18127 0.438221 2.71109e-19)
(6.69545 -1.27855 0)
(6.82897 0.77819 -1.19687e-20)
(4.15646 1.42346 1.49245e-18)
(4.27567 1.36774 1.91497e-18)
(7.04681 3.36154 1.22893e-19)
(6.9453 0.870697 -2.48951e-20)
(5.11948 -4.03479 -9.72946e-19)
(6.24253 3.33212 7.14009e-21)
(6.31771 3.21764 -2.39907e-21)
(4.96247 -0.0514668 -1.17374e-18)
(5.1458 -0.0951894 -5.48146e-19)
(7.50626 -0.608514 0)
(6.47893 0.90037 1.06537e-19)
(7.79777 0.82908 0)
(7.66878 0.804916 2.19819e-19)
(6.32236 1.03527 -1.66356e-19)
(4.75188 -1.45768 0)
(4.68223 -1.48527 0)
(6.22513 1.24602 2.48014e-20)
(7.35726 0.383543 -1.12926e-19)
(7.06914 -4.62494 0)
(5.59321 1.49406 0)
(7.03433 -3.24436 0)
(6.18528 -4.48945 4.77814e-19)
(6.15008 -4.48332 8.53451e-19)
(4.86282 0.385408 1.57916e-18)
(4.89971 0.32809 -1.40411e-18)
(3.18038 -1.07761 -3.18269e-19)
(7.98602 -4.31811 9.61385e-19)
(7.3683 -2.34648 9.50964e-20)
(1.18841 -3.2992 4.91121e-18)
(7.42342 -3.47987 3.55967e-19)
(5.89136 2.15297 -1.1525e-19)
(6.14294 2.47273 6.02682e-19)
(7.12582 -0.301052 -2.47344e-19)
(7.24619 -0.316213 1.07421e-19)
(5.78819 2.97818 7.02081e-20)
(4.39176 -0.573214 1.16108e-18)
(4.45996 -3.19946 5.41412e-18)
(6.52807 1.35616 0)
(9.01524 -1.98839 2.20186e-18)
(7.41219 1.06626 1.83002e-19)
(6.57148 -0.743641 0)
(6.53483 0.982464 4.02793e-20)
(6.17975 1.97343 7.02587e-19)
(6.1375 1.93308 -1.4339e-18)
(7.91039 -0.246557 4.14451e-19)
(7.89927 -0.159817 -7.55911e-19)
(6.03156 -2.54894 -2.26918e-19)
(4.54026 0.822672 -8.98305e-19)
(6.33352 2.37858 -9.63533e-20)
(6.41668 3.10337 -1.1302e-21)
(7.13618 1.24067 1.7771e-20)
(5.89789 1.39544 1.51642e-19)
(6.76795 0.845933 0)
(2.34943 -1.90841 0)
(4.09913 -0.545668 0)
(8.09222 1.67159 1.29606e-19)
(7.44116 -0.457473 1.94562e-19)
(6.63134 -1.28082 -9.79911e-20)
(6.51574 -1.33833 0)
(5.10645 0.29307 -1.3667e-18)
(5.15908 0.291971 0)
(4.97805 -3.35098 1.14838e-19)
(5.09961 -3.41124 -3.20802e-19)
(6.32957 -0.615494 0)
(8.18136 0.00245938 0)
(8.17172 0.0547767 0)
(6.81875 -4.6526 0)
(6.77571 -4.63986 0)
(6.52651 2.56054 8.30798e-21)
(6.52791 2.99929 -5.79156e-21)
(6.52022 3.03772 1.55103e-20)
(6.28979 2.37234 -1.16811e-19)
(6.86349 -1.13839 1.85768e-19)
(6.73406 -1.21657 7.11291e-20)
(7.04262 3.41359 -2.74641e-19)
(5.68373 1.46042 0)
(5.84518 1.39898 2.92821e-19)
(5.85137 1.36223 1.51631e-19)
(7.11375 1.00953 1.48006e-19)
(7.22026 1.00885 -1.36635e-19)
(7.73754 -4.88434 4.68853e-18)
(7.82281 -4.85801 0)
(6.02606 2.35026 -2.87308e-20)
(6.65203 -0.643533 7.37835e-20)
(6.6275 -0.735744 0)
(2.92018 0.630587 -7.04702e-18)
(2.88324 0.588763 8.00959e-18)
(2.91433 0.748251 -3.59397e-18)
(6.7422 -4.5961 9.20342e-19)
(5.92086 0.199281 0)
(6.05815 -0.517394 0)
(5.79255 1.00768 3.47962e-19)
(5.93127 -1.97644 0)
(4.67779 0.830108 -9.52379e-20)
(4.77574 0.745002 1.13878e-18)
(7.20282 -4.23886 4.22221e-18)
(7.05441 -0.288927 -2.83223e-19)
(6.19706 2.26065 -1.85613e-19)
(7.17994 1.82163 8.73553e-20)
(7.95065 -0.56495 0)
(8.06079 -0.444721 0)
(5.99921 0.794553 8.63842e-21)
(6.70124 -1.61491 2.58537e-19)
(6.23813 -4.50264 -1.95138e-19)
(6.47517 1.54024 8.96628e-19)
(7.69362 0.77494 0)
(7.77162 0.785132 0)
(5.98256 -4.38897 5.09904e-19)
(6.12247 -4.43713 0)
(6.7247 -4.29042 -6.76891e-19)
(4.96648 0.591469 0)
(4.93593 0.00965551 1.99915e-19)
(3.26528 -3.21435 0)
(6.30718 2.2749 1.13661e-19)
(5.98802 -4.44814 0)
(6.29685 2.30556 5.46551e-20)
(6.33854 2.3404 -9.63955e-20)
(5.81024 -3.37839 2.32858e-19)
(5.71059 -3.49636 0)
(7.26607 -0.778265 0)
(7.19907 -0.809522 0)
(8.05772 1.25581 0)
(6.27696 2.29212 -5.74644e-20)
(6.24084 2.25944 1.79887e-19)
(6.33578 2.3206 -6.15094e-20)
(6.35769 2.32034 5.31021e-20)
(6.31975 2.30456 8.0962e-22)
(7.31179 0.805884 -1.232e-19)
(5.02894 1.16905 0)
(8.93823 -2.02907 9.41673e-19)
(6.47852 2.78065 6.49914e-21)
(6.2726 2.57678 -2.89588e-19)
(6.23982 2.58608 0)
(5.39709 -4.24246 -3.68244e-19)
(5.39363 -4.27402 3.7865e-19)
(6.67009 1.24324 -8.28799e-22)
(4.29282 0.712131 -4.59899e-20)
(4.62332 -1.57542 -1.88715e-17)
(4.25965 -1.21883 2.1296e-17)
(5.37306 -1.93144 1.49359e-18)
(6.11831 1.35201 1.36116e-19)
(3.85345 0.290851 -3.15779e-18)
(6.04816 2.29746 -1.61873e-19)
(6.43369 2.38628 1.30527e-20)
(7.63568 -4.1741 -1.15576e-18)
(4.37885 1.28197 0)
(5.30829 -0.107307 -7.3386e-19)
(6.0322 2.38018 5.19203e-19)
(6.0471 2.36624 -7.04519e-19)
(6.0068 2.36827 -1.49392e-19)
(6.25518 -1.69643 2.52008e-20)
(6.63051 -1.01003 0)
(7.4842 -3.87357 1.07076e-18)
(6.44648 -1.01647 1.59884e-20)
(6.37146 -1.09823 2.09167e-20)
(7.59482 0.799156 1.56491e-19)
(6.65892 -4.59596 -2.19613e-21)
(6.55271 -4.57184 0)
(5.8302 -3.38234 4.65324e-19)
(6.91194 -4.09397 2.77468e-19)
(6.36888 -2.97604 1.35356e-19)
(6.35555 -4.53303 7.12816e-19)
(7.92027 -1.09523 -8.26579e-20)
(3.62106 -3.25971 -1.63215e-18)
(3.71854 -3.32856 -4.84384e-21)
(1.71496 -1.46118 1.65569e-17)
(6.58314 -4.57239 2.64013e-19)
(6.56358 -4.55858 0)
(6.63886 -4.58351 -3.01023e-19)
(2.76174 0.731573 -1.00482e-17)
(4.65758 1.04325 -4.21802e-19)
(4.63783 1.08953 2.20974e-18)
(6.10145 -1.33462 0)
(6.50334 -4.55644 6.57292e-19)
(7.67792 -0.62002 -1.37225e-19)
(7.79228 -0.589953 -1.66961e-19)
(6.13251 0.00096323 -1.30725e-19)
(7.37504 0.994297 1.23975e-19)
(5.4386 3.04789 -4.8444e-19)
(3.12186 0.549308 0)
(7.56352 -4.30249 0)
(6.44014 1.61809 4.76343e-18)
(6.34109 -1.81384 3.03433e-22)
(5.88972 2.75443 1.21259e-18)
(5.89749 2.89411 -5.35037e-19)
(6.28127 -0.627366 0)
(6.27099 -0.716396 2.33405e-20)
(6.22445 -0.758799 -7.51322e-20)
(7.05799 -4.82394 1.4418e-19)
(3.35917 -1.44356 -5.04233e-18)
(6.35495 2.76508 -1.34072e-19)
(6.22138 2.87424 6.55033e-19)
(2.25353 -0.980706 -1.32325e-17)
(6.11695 2.76593 1.66666e-18)
(5.45823 -3.69532 0)
(6.25382 2.98888 6.33952e-20)
(6.21631 3.10019 -4.7556e-20)
(6.7916 -4.63919 -4.99421e-19)
(5.44728 -0.0875297 -8.68989e-19)
(6.33379 3.26843 0)
(6.30165 3.32765 1.00689e-20)
(4.24444 0.298801 -1.1924e-18)
(4.06717 -3.45429 9.26624e-19)
(7.60513 0.708833 5.17523e-19)
(3.69348 1.83718 -2.4313e-20)
(5.30073 -4.10527 5.97046e-19)
(5.20333 -4.09671 -1.38737e-18)
(6.40183 2.58384 -3.07815e-20)
(6.04584 -0.110638 0)
(4.46026 -0.0598869 -1.43397e-19)
(4.5373 -0.161904 0)
(4.46097 -0.155204 1.33339e-19)
(4.09566 1.43822 -1.89721e-18)
(6.14797 -1.31827 -9.58942e-20)
(6.20666 -1.25413 0)
(6.3314 -1.21407 8.72027e-21)
(6.33637 -1.12275 -2.09104e-20)
(6.74016 -1.15515 5.73701e-20)
(6.81029 -1.10956 -2.04924e-19)
(7.64982 -0.578385 -1.40476e-19)
(7.56397 -0.575123 1.38015e-19)
(7.69726 -0.49352 0)
(4.42627 0.757215 -4.33974e-21)
(4.37021 0.701432 -2.10952e-18)
(3.83426 0.425508 5.36548e-18)
(6.34929 -0.860009 5.69873e-21)
(6.33389 -0.953535 0)
(6.68938 -4.61189 2.5283e-19)
(6.74641 -4.63275 -2.48957e-19)
(6.09196 -4.3016 -3.04835e-18)
(6.1076 -4.33883 1.525e-18)
(5.10422 -4.11015 -6.98439e-19)
(5.00871 -4.06155 -6.16406e-19)
(7.56314 0.975664 4.85098e-19)
(5.79648 -3.78986 -1.29003e-18)
(5.64203 -3.71108 1.03231e-18)
(6.57801 -0.67105 -3.74689e-17)
(6.6156 -0.761799 -2.57802e-17)
(4.45628 -2.84581 3.54442e-20)
(4.3614 -2.8341 0)
(7.78692 -0.825093 7.26821e-19)