/*--------------------------------*- C++ -*----------------------------------*\
  =========                 |
  \\      /  F ield         | OpenFOAM: The Open Source CFD Toolbox
   \\    /   O peration     | Website:  https://openfoam.org
    \\  /    A nd           | Version:  6
     \\/     M anipulation  |
\*---------------------------------------------------------------------------*/
FoamFile
{
    version     2.0;
    format      ascii;
    class       volScalarField;
    location    "1748";
    object      nuTilda;
}
// * * * * * * * * * * * * * * * * * * * * * * * * * * * * * * * * * * * * * //

dimensions      [0 2 -1 0 0 0 0];

internalField   nonuniform List<scalar> 
29874
(
0.251567
0.207213
0.121572
0.155393
0.179065
0.241472
0.217076
0.141058
0.152903
0.141856
0.267954
0.257951
0.182
0.262873
0.266102
0.28308
0.175187
0.277132
0.118827
0.141927
0.14066
0.143784
0.140536
0.153398
0.144482
0.177059
0.219879
0.143845
0.233389
0.233616
0.229581
0.195397
0.195012
0.220632
0.151482
0.158008
0.142248
0.162895
0.164079
0.20035
0.139905
0.139656
0.145186
0.133089
0.191351
0.160728
0.177974
0.244951
0.238965
0.239775
0.193749
0.291203
0.26748
0.278968
0.199584
0.19293
0.134864
0.169837
0.166089
0.172032
0.163764
0.149104
0.147478
0.16741
0.123467
0.189823
0.238423
0.176396
0.262153
0.283347
0.154935
0.148351
0.144379
0.109379
0.284856
0.230587
0.231983
0.226345
0.182946
0.164773
0.192344
0.109832
0.138327
0.146653
0.0954311
0.109381
0.148785
0.140871
0.188095
0.163261
0.0702536
0.139498
0.138619
0.145343
0.134843
0.138248
0.135944
0.098268
0.0613182
0.100149
0.150876
0.138568
0.1388
0.1677
0.211669
0.0633816
0.0756285
0.154633
0.158888
0.14449
0.0748464
0.195904
0.205282
0.138528
0.138528
0.13879
0.134815
0.150755
0.000263217
0.142242
0.139785
0.178397
0.130176
0.114505
0.136969
0.138618
0.153173
0.146941
0.142075
0.135036
0.14001
0.137097
0.150508
0.143213
0.143571
0.14328
0.146254
0.134758
0.143811
0.233495
0.20024
0.171776
0.278073
0.169538
0.149491
0.152048
0.170742
0.182881
0.139763
0.276509
0.246803
0.240885
0.294356
0.119061
0.135514
0.140106
0.150241
0.162042
0.183729
0.185259
0.167009
0.181134
0.222258
0.163058
0.215967
0.190102
0.171874
0.150235
0.149358
0.154356
0.194015
0.173004
0.164439
0.0923406
0.0808697
0.155005
0.148104
0.000329628
0.147819
0.145036
0.000268447
0.000247741
0.160473
0.143088
0.140982
0.158865
0.138315
0.138658
0.140697
0.138614
0.138494
0.190393
0.144926
0.139455
0.170671
0.143272
0.141865
0.154942
0.000500017
0.000499329
0.152221
0.15076
0.176745
0.163713
0.141029
0.138947
0.140615
0.216567
0.146742
0.140039
0.142439
0.145684
0.133825
0.141683
0.142994
0.146182
0.145658
0.1426
0.146336
0.152967
0.235802
0.197362
0.197862
0.162336
0.139692
0.146
0.151421
0.149339
0.161392
0.139081
0.139977
0.140014
0.137978
0.129469
0.144517
0.146561
0.135288
0.170943
0.159484
0.195978
0.198638
0.00669955
0.0422066
0.102026
0.10764
0.0379827
0.035875
0.0402672
0.131724
0.0454532
0.0824644
0.127019
0.0782186
0.0397898
0.103962
0.0515556
0.0420701
0.0005302
0.044434
0.0465672
0.0299297
0.0403211
0.0419907
0.039141
0.0420045
0.038831
0.0405398
0.115535
0.111996
0.000340588
0.0428883
0.0406323
0.0957523
0.0688923
0.108545
0.0803194
0.0195107
0.000791512
0.104066
0.0600508
0.0585711
0.12663
0.126485
0.121956
0.121673
0.0707924
0.125207
0.125365
0.0523979
0.0559455
0.0848776
0.0887657
0.0901284
0.040237
0.0418709
0.0469892
0.0478553
0.0250247
0.0863283
0.0889124
0.0984538
0.0293948
0.117372
0.028728
0.0918407
0.0896019
0.0457164
0.127729
0.0219685
0.00401503
0.0361101
0.0366795
0.0218202
0.0236655
0.0198478
0.0442632
0.0445391
0.0567443
0.114224
0.112059
0.0415664
0.0413323
0.0407769
0.0459365
0.110588
0.108538
0.111251
0.138261
0.0474374
0.0471589
0.136022
0.136475
0.0431031
0.041668
0.0388001
0.0318739
0.111399
0.112841
0.113004
0.111375
0.0413501
0.0173016
0.0442888
0.0481378
0.0463163
0.0460459
0.116354
0.116443
0.0397358
0.0909201
0.128261
0.124331
0.050583
0.0429085
0.0599189
0.105872
0.0530367
0.0534105
0.108357
0.000327135
0.041263
0.0279729
0.0423009
0.0454291
0.0442707
0.0887151
0.0896003
0.0872921
0.132261
0.0606674
0.0562393
0.0597912
0.0564911
0.139528
0.13132
0.0628874
0.0706299
0.0688308
0.0630265
0.0727538
0.0397347
0.0397599
0.12057
0.131297
0.110588
0.110509
0.115162
0.11361
0.115175
0.112367
0.0439018
0.043359
0.0384324
0.0420783
0.0425791
0.0376011
0.0369697
0.0382905
0.0360395
0.138063
0.0402786
0.0411273
0.0417787
0.126781
0.122684
0.130447
0.0478164
0.0507211
0.0477772
0.0503046
0.0897456
0.0822374
0.0854832
0.0871449
0.136796
0.017948
0.0225842
0.0416229
0.0378196
0.0457838
0.0454177
0.0428802
0.0817212
0.0699005
0.0864954
0.082927
0.0811438
0.0887118
0.0589309
0.0587711
0.0366097
0.0364264
0.0384097
0.0348432
0.0404504
0.0381433
0.0338657
0.0396178
0.0431396
0.0691718
0.076943
0.0710694
0.0739362
0.052355
0.0489538
0.139383
0.140171
0.138084
0.136782
0.140562
0.0520758
0.055313
0.049315
0.0796148
0.0901402
0.0845643
0.0348615
0.0361387
0.0372056
0.0342617
0.0435578
0.0426888
0.0434782
0.0423581
0.0423762
0.0420898
0.0406257
0.0777611
0.150992
0.14409
0.147636
0.148171
0.0660332
0.113604
0.105067
0.104039
0.107392
0.0487535
0.0449586
0.0524337
0.0701044
0.0611691
0.067407
0.0647247
0.0634904
0.138173
0.0435328
0.0409806
0.0407346
0.0434293
0.165909
0.000256163
0.137304
0.193922
0.000517055
0.138566
0.167994
0.13951
0.139501
0.139537
0.170273
0.117157
0.138032
0.138789
0.103864
0.134675
0.132917
0.138441
0.136612
0.118126
0.138489
0.13813
0.116344
0.138682
0.13844
0.00361395
0.139147
0.142233
0.000221364
0.13839
0.138794
0.14044
0.115252
0.140145
0.117984
0.117992
0.135157
0.139322
0.13213
0.134357
0.127197
0.152419
0.1287
0.124295
0.133859
0.129524
0.13882
0.130557
0.12754
0.121687
0.0962421
0.0949089
0.00022726
0.00536111
0.157577
0.166412
0.138515
0.102538
0.106204
0.139296
0.134026
0.139809
0.139602
0.138299
0.0434575
0.0534274
0.0540808
0.123645
0.139201
0.223965
0.126448
0.101312
0.09554
0.0960295
0.138674
0.00906536
0.131306
0.132713
0.100639
0.1066
0.0391181
0.148848
0.140513
0.235275
0.203138
0.138314
0.138527
0.138477
0.0956351
0.158274
0.146406
0.128381
0.126567
0.145535
0.118761
0.12049
0.105149
0.139816
0.127206
0.137298
0.133841
0.158758
0.147711
0.0749035
0.0694412
0.118418
0.119874
0.143333
0.140225
0.000739638
0.149711
0.181872
0.142214
0.140345
0.13999
0.139296
0.139828
0.126755
0.134441
0.139214
0.0559187
0.0557976
0.0595817
0.139073
0.138174
0.138379
0.137975
0.139744
0.143376
0.147646
0.109836
0.0376885
0.139477
0.138108
0.145593
0.153685
0.0498689
0.0452483
0.121974
0.118918
0.16124
0.2188
0.159307
0.177566
0.0391206
0.0401815
0.110557
0.114378
0.11775
0.085169
0.0913532
0.137811
0.137631
0.137358
0.170756
0.141028
0.13878
0.138709
0.133951
0.135742
0.139119
0.13859
0.132619
0.133061
0.13097
0.139744
0.137004
0.145787
0.149394
0.000442891
0.00426372
0.117568
0.113468
0.122381
0.0636752
0.0594091
0.168003
0.170256
0.158071
0.00576916
0.00677992
0.0771036
0.0265556
0.13566
0.0365721
0.0719668
0.0327723
0.0368608
0.0621633
0.0564738
0.0560571
0.0484038
0.0864206
0.0861772
0.0940436
0.0949281
0.0736657
0.0419684
0.056676
0.0311053
0.0510092
0.0646869
0.064378
0.0419872
0.0419373
0.0635297
0.0293708
0.00315818
0.0308123
0.00368512
0.00242621
0.0704183
0.0525069
0.0527264
0.0643382
0.0228172
0.052457
0.0249117
0.0585816
0.0262334
0.0740491
0.047211
0.0462954
0.0624175
0.0396106
0.0349643
0.0150596
0.0180781
0.0626673
0.0288764
0.0616625
0.0635646
0.092897
0.105718
0.0400349
0.0556677
0.0964573
0.0467952
0.0595631
0.0597834
0.0474019
0.0474975
0.0525774
0.0524033
0.0251735
0.0874904
0.0865622
0.0151637
0.071613
0.0178128
0.00160711
0.0650985
0.0631943
0.0447612
0.00158732
0.00136641
0.0657568
0.0744833
0.0155913
0.00423679
0.0910552
0.0917563
0.0560182
0.0401208
0.0403556
0.0899478
0.0638457
0.0480312
0.038626
0.0403732
0.0516994
0.0747004
0.0746316
0.0216846
0.0197151
0.0314308
0.0310881
0.0544182
0.060148
0.0473056
0.0501463
0.0361756
0.0585703
0.0067742
0.0540612
0.0570675
0.0568126
0.0605514
0.0422629
0.066659
0.0404804
0.0434137
0.0701032
0.0445065
0.043058
0.0728096
0.0487104
0.0475053
0.0761543
0.0383948
0.0276749
0.0267225
0.0569537
0.0575569
0.0814364
0.00970818
0.0365164
0.00143391
0.0258553
0.0884499
0.105023
0.0500014
0.0478103
0.0718061
0.0420804
0.0321195
0.0695254
0.00975121
0.0499394
0.0578971
0.0664098
0.118438
0.118353
0.0357964
0.0363106
0.0629099
0.0527572
0.0840261
0.0597589
0.0566703
0.0766041
0.0615659
0.0175194
0.0367101
0.0309993
0.043863
0.0556149
0.057851
0.0617172
0.0626023
0.0126215
0.0144026
0.0625381
0.0304425
0.0309719
0.0444143
0.0426891
0.0736261
0.0608199
0.059744
0.0861254
0.0512377
0.0536511
0.0347638
0.0766037
0.0767089
0.0764453
0.0560096
0.0538246
0.0357243
0.033197
0.105218
0.0568249
0.0569291
0.033925
0.0326241
0.0320228
0.0424411
0.069959
0.06699
0.0740422
0.0651135
0.0556504
0.0570917
0.0445635
0.0511839
0.0883514
0.0565987
0.0339128
0.0325852
0.0718213
0.0534406
0.0282819
0.127201
0.0427053
0.0410877
0.0250921
0.027667
0.0243237
0.0603979
0.0563384
0.0195786
0.0847022
0.0235753
0.0853901
0.0838118
0.0547408
0.0521871
0.045742
0.0467251
0.0336451
0.086052
0.0869638
0.0838022
0.0829843
0.0844554
0.0512197
0.0651147
0.0107708
0.0691543
0.0834616
0.084631
0.0132649
0.0127989
0.0661221
0.0469682
0.074402
0.082074
0.0687752
0.0749701
0.0356735
0.0926493
0.0796875
0.0146057
0.051716
0.0637457
0.095571
0.0950515
0.0948539
0.0629083
0.0561638
0.0200705
0.0596853
0.0610942
0.0449116
0.0398537
0.0368027
0.0279009
0.0261304
0.0605425
0.0311739
0.0327314
0.0186932
0.0196567
0.0054014
0.0378031
0.0376082
0.0393485
0.0244257
0.0565585
0.0562719
0.0652267
0.0356083
0.0388734
0.0372253
0.0670471
0.050315
0.0664879
0.0431093
0.0394567
0.126136
0.0611956
0.0818479
0.0753418
0.0632812
0.0633086
0.0639949
0.0490108
0.0199057
0.105744
0.100883
0.015311
0.100528
0.0197922
0.0671768
0.0634392
0.0436037
0.0662679
0.0548611
0.0532864
0.0438977
0.00395606
0.044525
0.0343512
0.0123397
0.0094817
0.078026
0.0679238
0.0462023
0.047061
0.0458073
0.0457143
0.0647645
0.063798
0.061946
0.0617929
0.0536991
0.0524125
0.0397736
0.041197
0.0391696
0.04988
0.0484664
0.0359725
0.0616737
0.0617807
0.0402084
0.0419257
0.0289799
0.0290186
0.00556632
0.00436859
0.0460362
0.0260792
0.0235051
0.115623
0.109755
0.0332322
0.031475
0.0361995
0.0332169
0.0301483
0.0432432
0.0362723
0.0399422
0.0439213
0.0313309
0.0962403
0.0920229
0.101837
0.101237
0.100087
0.054364
0.105991
0.103332
0.0619036
0.0515642
0.018512
0.0196244
0.0157074
0.0777252
0.0430574
0.0366434
0.0582244
0.0383322
0.0761965
0.0766069
0.0762848
0.0451661
0.0513334
0.0520241
0.0496902
0.0482655
0.0592295
0.0592832
0.0615825
0.0548221
0.0561376
0.0561725
0.0573492
0.0374899
0.0359862
0.0481053
0.0478414
0.0478585
0.0480422
0.0536307
0.0547064
0.0532661
0.0888467
0.0533078
0.0673328
0.0521348
0.0367105
0.00109638
0.0463677
0.0322646
0.0313119
0.102037
0.100754
0.102488
0.0682074
0.0672994
0.0679954
0.0414115
0.0771543
0.0750769
0.0783903
0.0818443
0.0815076
0.0803277
0.0802192
0.0510344
0.0520672
0.0696087
0.0119031
0.0701765
0.019512
0.0917483
0.0563058
0.0405178
0.122233
0.0171412
0.0569175
0.0570558
0.0475955
0.0449716
0.0433936
0.0461521
0.0867255
0.106449
0.103445
0.0890959
0.0853011
0.0603409
0.0612836
0.0577065
0.047246
0.0679975
0.0676603
0.0376399
0.0390352
0.0823933
0.0355321
0.0333695
0.0340588
0.05534
0.0538847
0.0540675
0.00866773
0.0164995
0.000640977
0.0657643
0.0647608
0.101908
0.079421
0.000778509
0.0461426
0.0446639
0.0894693
0.0483134
0.050265
0.0497225
0.0487819
0.064694
0.0660755
0.0611498
0.0619465
0.0299029
0.0288624
0.0618958
0.00952032
0.0420809
0.0433444
0.000570734
0.0669153
0.0664845
0.0671609
0.0625088
0.0316863
0.0299909
0.0323827
0.00735033
0.0195712
0.0184429
0.064707
0.0639627
0.0778329
0.0939288
0.0937558
0.0931614
0.100679
0.0993436
0.0996731
0.0413281
0.0652974
0.0646458
0.0886104
0.0870599
0.0878119
0.000530998
0.0319551
0.0591697
0.0590643
0.103847
0.102051
0.10256
0.103385
0.0649147
0.0646549
0.0265233
0.0235202
0.108611
0.000950119
0.0742591
0.0733342
0.0457468
0.046166
0.0448307
0.00102341
0.0936553
0.088736
0.000457323
0.000785205
0.00180495
0.0765238
0.0764401
0.0762501
0.0519467
0.0359027
0.038578
0.0962879
0.0726412
0.0516849
0.0517152
0.0508841
0.0634025
0.0630135
0.0346229
0.000669304
0.0995348
0.0449552
0.0452652
0.0436868
0.0379441
0.0373514
0.0918733
0.0925135
0.0916975
0.0934777
0.0932371
0.0957576
0.057963
0.000493711
0.0559564
0.0312293
0.106937
0.10414
0.0208838
0.0192671
0.0393048
0.0398184
0.0692295
0.0629944
0.0632769
0.0620762
0.060335
0.0611023
0.0264066
0.0235061
0.055947
0.000675762
0.000402141
0.0489782
0.0368325
0.0357228
0.0144793
0.0148266
0.0552964
0.0337537
0.0322957
0.0399518
0.106223
0.102505
0.0632648
0.0623864
0.0220076
0.0478535
0.0372246
0.0778063
0.0776439
0.0593831
0.0587266
0.0295433
0.0276133
0.000447586
0.000760458
0.0411989
0.0713158
0.0712178
0.00035791
0.0736749
0.0745543
0.0648783
0.0357308
0.0332464
0.0342334
0.0713819
0.0910607
0.0947657
0.0955833
0.0964776
0.0964303
0.0349995
0.0243507
0.0931039
0.0944378
0.0948909
0.0925506
0.0797532
0.0777694
0.101759
0.063274
0.0605811
0.059707
0.0741846
0.0948544
0.0963236
0.00120307
0.00260982
0.0448061
0.0457707
0.0456942
0.044645
0.0461201
0.0473443
0.0690882
0.0694904
0.0581447
0.0506514
0.0513713
0.0408968
0.0378099
0.0398343
0.038545
0.0652657
0.0658829
0.0651542
0.0657819
0.052973
0.0540986
0.0532071
0.0537979
0.0363676
0.0372686
0.0381086
0.0357083
0.0278339
0.0301244
0.0274904
0.000679182
0.00114686
0.040826
0.0414128
0.0561534
0.0545837
0.0553498
0.0554261
0.02682
0.0307397
0.112701
0.114753
0.107951
0.0386148
0.0901834
0.0924971
0.0453358
0.0451651
0.0456196
0.0451535
0.0675248
0.0676408
0.0751703
0.0742671
0.0850584
0.0860494
0.0485608
0.0471698
0.0471681
0.0484728
0.091092
0.091612
0.0908529
0.0917809
0.0118354
0.0202418
0.0877288
0.0896682
0.0894608
0.0877774
0.0880611
0.0445891
0.0446192
0.045846
0.00133359
0.0204029
0.019411
0.0228008
0.0532604
0.0536281
0.0515441
0.0491419
0.092357
0.0395412
0.040813
0.042326
0.0438915
0.0420626
0.048599
0.0498923
0.0498699
0.0309542
0.0456783
0.0459549
0.0454229
0.0463098
0.0343878
0.0332894
0.0347831
0.0486871
0.049798
0.0491196
0.055861
0.056942
0.0569712
0.0556933
0.0710544
0.0705137
0.0712884
0.11087
0.108052
0.109255
0.0662029
0.0907278
0.0907738
0.0911957
0.0903401
0.0443434
0.0441661
0.0435607
0.0449246
0.0348632
0.0387762
0.040319
0.0497466
0.0510538
0.0502963
0.0045862
0.00463243
0.0424643
0.0384166
0.0129082
0.0153613
0.043288
0.0420374
0.0445395
0.0569521
0.0586811
0.0577457
0.0438594
0.0452929
0.137105
0.137336
0.0220454
0.0430227
0.0417136
0.0430088
0.040435
0.0384922
0.0235588
0.0470544
0.046475
0.0140036
0.0174376
0.0528665
0.0696106
0.0688566
0.0693127
0.0691928
0.00799127
0.00778717
0.0439383
0.0418188
0.043696
0.0414184
0.0183194
0.0724451
0.0981651
0.00768376
0.0600318
0.0591291
0.096355
0.0983466
0.0968904
0.0503331
0.0459176
0.0516164
0.0446414
0.0440641
0.0835976
0.0802514
0.0815515
0.103422
0.105014
0.104598
0.103756
0.0671267
0.0683234
0.0678434
0.012718
0.0124298
0.0514355
0.0506777
0.0503842
0.094957
0.09865
0.0659754
0.0659036
0.0662816
0.0655532
0.0408385
0.0380412
0.0390697
0.0396312
0.0320439
0.0413429
0.0403569
0.0590325
0.0578707
0.0583072
0.0586889
0.0433718
0.0425917
0.0435768
0.0422982
0.0757184
0.0760274
0.0760629
0.0555912
0.0553739
0.0567511
0.0585481
0.0588115
0.0592605
0.0581066
0.0268206
0.0234537
0.0229803
0.0279999
0.035842
0.0343575
0.0315443
0.031755
0.0596872
0.0605382
0.0602279
0.047439
0.0459077
0.0412798
0.039557
0.0403065
0.0405027
0.00832369
0.00643371
0.082311
0.0796306
0.080629
0.081209
0.0846643
0.0862501
0.0822831
0.103792
0.118965
0.0869266
0.0890795
0.0535097
0.0525297
0.0526199
0.111309
0.107848
0.136514
0.0759548
0.0760269
0.0736033
0.0562608
0.0545678
0.0558199
0.04334
0.0427256
0.0437195
0.0422366
0.0933003
0.0934678
0.0923323
0.0382467
0.0391081
0.0397098
0.0402583
0.0393157
0.0275497
0.0298914
0.0296289
0.0457715
0.0477336
0.0469821
0.0465017
0.0430276
0.0410683
0.0424284
0.0922734
0.0931828
0.0936662
0.0919182
0.0291783
0.0476958
0.0443386
0.0439779
0.0430201
0.048682
0.048622
0.0488739
0.048548
0.0456075
0.0466538
0.0469229
0.0454542
0.0472246
0.046911
0.0486301
0.011565
0.0101993
0.0118906
0.0640077
0.0641732
0.0631263
0.0638257
0.0630721
0.111883
0.111725
0.0745872
0.0389764
0.0486011
0.058865
0.0373254
0.0391052
0.0386359
0.0379031
0.0486889
0.0486126
0.085346
0.087558
0.0840569
0.044636
0.0452319
0.0458583
0.0907669
0.0900242
0.0900908
0.0906396
0.0425508
0.0420067
0.0437108
0.0407602
0.0175541
0.0144372
0.0159543
0.0896007
0.0886065
0.0892541
0.067947
0.0674584
0.0920257
0.0919607
0.026225
0.0234572
0.0240792
0.0320704
0.0307836
0.0316074
0.0857765
0.0573484
0.0588129
0.0582133
0.0579565
0.0370387
0.0397998
0.0637621
0.0637919
0.0639011
0.0605552
0.0470129
0.0473283
0.0468701
0.0633637
0.0637459
0.0631326
0.0400287
0.0411521
0.0400899
0.0409797
0.0320413
0.0326574
0.0389962
0.0406594
0.0408847
0.0624928
0.0627106
0.0617735
0.0857663
0.085398
0.0849963
0.0331965
0.0346337
0.0353451
0.0328393
0.00709248
0.00847253
0.0535777
0.0346305
0.0300124
0.032873
0.0899203
0.0893433
0.0923568
0.000861586
0.00856422
0.0563873
0.057072
0.0573884
0.0749477
0.0751048
0.0570435
0.0141249
0.080849
0.0805698
0.0816944
0.0796534
0.117749
0.117214
0.119232
0.0463415
0.044418
0.0455181
0.0687331
0.0693275
0.0891402
0.0868592
0.0874671
0.0886426
0.0541536
0.0531882
0.0549908
0.0937566
0.0934408
0.0944719
0.0928187
0.0302439
0.0302139
0.0314742
0.0290391
0.0576145
0.0595152
0.0575331
0.0579115
0.0590126
0.0176413
0.0142781
0.0442592
0.0429013
0.0439525
0.0428624
0.0582872
0.0489556
0.0492173
0.0870063
0.100903
0.100688
0.100152
0.101589
0.0437941
0.0435753
0.0446044
0.00960043
0.00992094
0.0461217
0.0468924
0.0455983
0.0540775
0.055049
0.0539195
0.0550855
0.072823
0.0721391
0.0879206
0.0970778
0.0923057
0.0996911
0.0991232
0.098525
0.0447858
0.046642
0.0457882
0.0456765
0.0502802
0.0498332
0.0649059
0.0483437
0.0471079
0.0480712
0.0474676
0.118524
0.117694
0.0330544
0.0323791
0.0543861
0.0552327
0.0553011
0.0542419
0.0673192
0.0666597
0.0669784
0.0670207
0.119655
0.089952
0.0895029
0.0402992
0.0421009
0.0416573
0.0403356
0.0349176
0.0362995
0.0628385
0.107895
0.106443
0.109067
0.0586698
0.0576553
0.0582112
0.0581438
0.034897
0.0384771
0.0361184
0.0238031
0.0210878
0.0425939
0.0445373
0.0443334
0.0433408
0.01719
0.00406476
0.0907625
0.0912288
0.025175
0.0914346
0.0903615
0.0408074
0.0979011
0.100394
0.0765423
0.0794765
0.0489849
0.0448869
0.081293
0.0463224
0.0458352
0.0465711
0.0732502
0.0467005
0.0446005
0.0459095
0.0487752
0.04758
0.0486583
0.0475842
0.123187
0.12441
0.0344794
0.0371014
0.03744
0.0381208
0.0363499
0.0330034
0.0339401
0.032527
0.0345257
0.138751
0.0922828
0.0905886
0.0923302
0.0903284
0.0525873
0.032956
0.0290511
0.0314805
0.0309982
0.0350609
0.0349492
0.0365213
0.0335785
0.138
0.138185
0.0597711
0.0605717
0.0609124
0.0120247
0.0107373
0.0321307
0.0535498
0.0523741
0.0523805
0.053441
0.0591835
0.059876
0.0111035
0.0418953
0.0266236
0.0241799
0.0262481
0.0239108
0.042654
0.0413136
0.0436022
0.000382454
0.0657846
0.066055
0.0651523
0.108445
0.0986132
0.0711362
0.0488324
0.0575494
0.0586622
0.0574102
0.0953546
0.0960452
0.0503719
0.0518544
0.050627
0.0561575
0.0405748
0.0413661
0.0398289
0.059437
0.0601837
0.0592221
0.120513
0.115161
0.113506
0.113808
0.114925
0.0487164
0.0470869
0.0496893
0.0464206
0.000139414
0.0517915
0.053172
0.0530004
0.0678494
0.0661462
0.0707018
0.0334059
0.00594716
0.0960365
0.0442044
0.0447512
0.0648053
0.0649309
0.025116
0.0259207
0.0246862
0.103867
0.104761
0.103235
0.105318
0.108907
0.0586977
0.0597103
0.059502
0.0588536
0.0842318
0.083247
0.0583654
0.0574732
0.0972451
0.0961706
0.0967544
0.0965169
0.0276688
0.0300166
0.0283916
0.0345465
0.03483
0.0338835
0.0354568
0.0448234
0.0437875
0.043673
0.0445854
0.0230544
0.046292
0.045103
0.0455333
0.0103603
0.0469167
0.0435769
0.0457201
0.0444856
0.0306261
0.0328086
0.0306919
0.0921329
0.0915919
0.092032
0.0803022
0.0803033
0.0330674
0.0339006
0.0313575
0.0352518
0.062766
0.0621253
0.0627348
0.0620956
0.0608416
0.0598583
0.0603704
0.0603388
0.0894452
0.0890139
0.0896566
0.0887676
0.0038847
0.00392387
0.00410742
0.0124965
0.0519002
0.0494881
0.0434441
0.0419832
0.0425287
0.042921
0.0401233
0.10891
0.10847
0.107755
0.109783
0.0720669
0.135777
0.134803
0.135079
0.13524
0.046234
0.0471574
0.0462948
0.0129409
0.0330552
0.0351949
0.0703488
0.0708085
0.0699925
0.0899329
0.0897862
0.0897056
0.000188696
0.0360465
0.03583
0.0351919
0.0641469
0.0486262
0.0489827
0.0484917
0.0412172
0.0418251
0.042149
0.0496559
0.057523
0.0585267
0.0575111
0.0584277
0.00045529
0.0389893
0.0369153
0.038433
0.0362457
0.0708225
0.0677934
0.0724073
0.0485793
0.0496974
0.0426888
0.0414911
0.0396624
0.0619301
0.0611386
0.0612714
0.0617658
0.114185
0.0415386
0.0422409
0.000668842
0.121434
0.12112
0.0876888
0.0874768
0.0869762
0.0881839
0.0576753
0.0526922
0.056536
0.0545582
0.0371455
0.0387528
0.13328
0.0555323
0.0569972
0.0562499
0.0562713
0.0467886
0.0473205
0.043701
0.0450035
0.0299
0.027113
0.0396633
0.0411551
0.0402513
0.0406254
0.00114147
0.0309484
0.0308701
0.0297793
0.0320622
0.0646203
0.064804
0.0648665
0.0187756
0.0166387
0.0517864
0.0515924
0.0717065
0.0483867
0.0492791
0.137179
0.0746159
0.0870461
0.0863063
0.0874032
0.0858344
0.133059
0.138187
0.0252254
0.0102545
0.0100129
0.0195291
0.0301539
0.00577115
0.0112698
0.0115609
0.0147732
0.0602144
0.0365707
0.1386
0.00958843
0.00995967
0.00574561
0.00510798
0.138589
0.138428
0.138451
0.138264
0.00896453
0.0419847
0.0414338
0.122322
0.117856
0.12763
0.125534
0.0747986
0.0778719
0.014058
0.00790524
0.000326804
0.0567292
0.000996077
0.0191026
0.0005956
0.00789472
0.00977997
0.130827
0.0809529
0.0308114
0.0225811
0.0250431
0.000390148
0.139165
0.00501043
0.00492275
0.00581518
0.0583416
0.00472101
0.149168
0.144555
0.00731798
0.137979
0.000191597
0.0255924
0.0240348
0.0119107
0.0144304
0.0151756
0.120802
0.0594585
0.0224695
0.137284
0.137394
0.0313393
0.0248288
0.0226566
0.0523454
0.0857398
0.135777
0.136389
0.023629
0.0225999
0.129592
0.00842107
0.0016735
0.000334764
0.120358
0.118646
0.00113548
0.0054753
0.0220845
0.000958822
0.0004205
0.00422911
0.121482
0.114871
0.118188
0.117895
0.00305809
0.0298469
0.00646826
0.000241489
0.0229586
0.114201
0.117985
0.0271987
0.006457
0.00357838
0.0032883
0.130515
0.0411368
0.132093
0.129616
0.130962
0.16793
0.0151578
0.0704186
0.00421121
0.00523234
0.000975425
0.112762
0.00669802
0.0360703
0.0124416
0.0264224
0.024789
0.0246075
0.0346186
0.0209173
0.0217394
0.022015
0.0177781
0.0248084
0.0268845
0.00869749
0.00894224
0.00197615
0.00349067
0.0214646
0.0189108
0.0165187
0.00436472
0.0050296
0.0302575
0.0319752
0.0212472
0.020176
0.0211174
0.00220028
0.00617293
0.0149292
0.000981333
0.000347105
0.000531257
0.0168609
0.000657536
0.000852277
0.000343757
0.000522494
0.00857653
0.0011437
0.0430036
0.0184139
0.0306147
0.0268573
0.00564814
0.00704455
0.0340437
0.033015
0.0716911
0.0190063
0.110838
0.0326725
0.0615478
0.000708579
0.00613279
0.132888
0.00427545
0.0974211
0.0801546
0.133085
0.132247
0.0311429
0.0110236
0.138336
0.123219
0.124262
0.0160939
0.0466823
0.0461238
0.132053
0.00432349
0.00515297
0.00330798
0.0055569
0.00607719
0.00552303
0.00968561
0.00429902
0.129856
0.033651
0.00461458
0.00606453
0.00563706
0.00747449
0.0286072
0.0279943
0.0476531
0.11057
0.00840344
0.000186847
0.137809
0.137668
0.0233028
0.0223382
0.0298278
0.0286388
0.018852
0.0797031
0.0239137
0.00876852
0.00140327
0.00784508
0.0302444
0.0275427
0.0974276
0.0846382
0.00284476
0.00307015
0.134225
0.0392581
0.0282381
0.0279791
0.0284298
0.00653988
0.0519668
0.137964
0.0166027
0.0177341
0.0153923
0.136519
0.136859
0.0248322
0.0215565
0.00706112
0.0429486
0.0483033
0.0219842
0.0198499
0.00797667
0.00898576
0.135057
0.136273
0.0675778
0.150683
0.143866
0.138583
0.138408
0.013671
0.111997
0.00759357
0.00493988
0.0406664
0.00801189
0.00647623
0.00676544
0.0148335
0.0979066
0.00865779
0.00974247
0.0237217
0.00533666
0.00563549
0.128763
0.00763698
0.0333202
0.00736567
0.0604629
0.136844
0.136935
0.00212188
0.114722
0.000842202
0.0197972
0.0564459
0.0574747
0.0477091
0.0332721
0.0328289
0.0113167
0.0121767
0.0160448
0.0381213
0.0244937
0.228231
0.185017
0.000476874
0.0389934
0.039085
0.0376748
0.0377132
0.00859824
0.00340963
0.0500252
0.0401763
0.0402092
0.0408052
0.0394847
0.0268978
0.0110981
0.115388
0.122027
0.12521
0.138027
0.138112
0.0249424
0.0347938
0.0247723
0.026259
0.0275479
0.0992999
0.0927768
0.107237
0.029223
0.0247662
0.025061
0.112533
0.0249525
0.0651388
0.0670329
0.0690882
0.0358233
0.0289643
0.0576703
0.0568671
0.104166
0.138418
0.111188
0.109013
0.13061
0.107645
0.0113172
0.0155912
0.0112439
0.119608
0.118119
0.128329
0.00820356
0.00945446
0.0643103
0.0371532
0.0353591
0.0219777
0.0200781
0.0469972
0.0472048
0.0484678
0.0272696
0.0157884
0.03054
0.0298715
0.0170077
0.0207948
0.136781
0.13717
0.136766
0.137165
0.0147071
0.0144356
0.115641
0.0191062
0.0186579
0.0314345
0.0284847
0.0282117
0.0319646
0.0348308
0.034347
0.137842
0.136159
0.1356
0.0975025
0.0815489
0.048038
0.136308
0.0167036
0.0149681
0.0118956
0.10234
0.275742
0.214166
0.240134
0.0398675
0.0387884
0.087074
0.0344937
0.0337127
0.0305202
0.00141109
0.21416
0.0116742
0.0338028
0.0363801
0.0354059
0.0342614
0.0024807
0.13608
0.136636
0.0105747
0.0290301
0.117307
0.138858
0.13891
0.105875
0.105101
0.000284999
0.0309621
0.0567847
0.0422303
0.0430127
0.0431379
0.000399173
0.114933
0.11658
0.11343
0.137246
0.136862
0.0267126
0.0274436
0.0290842
0.0162939
0.0271066
0.0427107
0.0431792
0.0420898
0.0946916
0.000687025
0.109681
0.106416
0.0168867
0.00218722
0.104682
0.109863
0.122142
0.118214
0.0414189
0.0408856
0.0208943
0.133381
0.0346871
0.0336961
0.0354802
0.035221
0.196735
0.186383
0.0371821
0.0362144
0.0349212
0.00813751
0.0102735
0.0105121
0.0118827
0.0128131
0.0241572
0.0154416
0.0390397
0.0381992
0.0390294
0.117259
0.120049
0.00171582
0.0378522
0.0475201
0.0480233
0.0491905
0.0369401
0.0412098
0.057548
0.138456
0.0126605
0.036682
0.0398652
0.0388351
0.122636
0.122189
0.013461
0.13516
0.0235073
0.00888734
0.0526039
0.0539388
0.054597
0.0411531
0.040674
0.0960041
0.101533
0.0310763
0.0295181
0.0212417
0.0223179
0.0285466
0.0255368
0.0166604
0.0133679
0.0156969
0.0315832
0.0410585
0.0202033
0.00301142
0.106786
0.0325877
0.0322711
0.0333999
0.0110643
0.0194316
0.124873
0.123755
0.083821
0.0843432
0.0835306
0.0155229
0.0453409
0.00632197
0.000948335
0.138799
0.0504456
0.0236314
0.0223277
0.0239855
0.0491971
0.0359005
0.000518014
0.14049
0.039928
0.0736781
0.0196351
0.0255497
0.0660795
0.0298449
0.0285853
0.0103016
0.0558493
0.0352106
0.00446526
0.112651
0.103437
0.0987596
0.0995162
0.0957772
0.00146986
0.0037223
0.0373107
0.0116878
0.0502906
0.0544574
0.0441837
0.0444276
0.0343203
0.0348958
0.0389557
0.0186156
0.0193563
0.112149
0.107913
0.138877
0.13881
0.0929054
0.0911873
0.00582853
0.0369663
0.0349186
0.0199432
0.0208928
0.0695594
0.0673635
0.00427913
0.0174285
0.0144967
0.0429616
0.045831
0.120367
0.117751
0.0963603
0.138514
0.138398
0.0322908
0.0316809
0.0432523
0.0425265
0.0226396
0.0206742
0.104912
0.0183453
0.0198634
0.0442744
0.0455083
0.0463013
0.0457568
0.0491746
0.0480986
0.0838862
0.0834193
0.08216
0.0633693
0.0639063
0.064239
0.0420065
0.0423395
0.126613
0.134705
0.135303
0.0157976
0.00924547
0.129779
0.127375
0.043394
0.0429628
0.044438
0.044193
0.06103
0.136292
0.144685
0.00200024
0.0354365
0.0363161
0.0398911
0.11754
0.0363871
0.139072
0.14061
0.0687053
0.0343894
0.0358542
0.0927312
0.0939941
0.0901043
0.0890142
0.0963219
0.0948769
0.0075
0.00648205
0.059559
0.0567708
0.139267
0.139209
0.13936
0.116219
0.0397476
0.116006
0.0578272
0.0625598
0.0727427
0.0697971
0.0128828
0.0417634
0.0407464
0.106528
0.108011
0.0278276
0.118755
0.0265501
0.0166738
0.138425
0.138233
0.102976
0.0626256
0.0613878
0.0615873
0.0620218
0.0140823
0.0156377
0.114279
0.0346326
0.0360342
0.0437011
0.154661
0.1662
0.0465633
0.137935
0.137606
0.0247974
0.0280364
0.138521
0.0591406
0.0602589
0.0597607
0.0360551
0.0366689
0.0612423
0.0651904
0.0415023
0.0402561
0.134591
0.00361216
0.0479922
0.0484687
0.0470909
0.0465848
0.0345197
0.112385
0.108209
0.104479
0.0738892
0.0705677
0.0725423
0.121722
0.117169
0.112484
0.0694513
0.0706447
0.0700983
0.133403
0.13467
0.134174
0.0891392
0.0760177
0.0479909
0.0488269
0.0134682
0.0122006
0.0138661
0.116352
0.102439
0.108816
0.113902
0.0419521
0.138805
0.130737
0.128688
0.0151617
0.0168625
0.0431426
0.0442098
0.0918878
0.0909866
0.0900516
0.121934
0.124315
0.118001
0.0711728
0.0832112
0.0845298
0.123981
0.12482
0.125855
0.0428008
0.0412669
0.136914
0.137257
0.137439
0.042221
0.0408026
0.0402252
0.129098
0.130126
0.0468688
0.047216
0.00549677
0.0432581
0.0429938
0.040705
0.0408771
0.0181582
0.019482
0.0390532
0.0403873
0.0401287
0.0713838
0.202136
0.256477
0.0294592
0.00307892
0.0681009
0.000778506
0.0874438
0.0883909
0.0390618
0.0134711
0.133104
0.138089
0.138165
0.122859
0.123882
0.0342476
0.0335945
0.138551
0.0764816
0.0761511
0.00488011
0.136369
0.137315
0.137706
0.0633567
0.0626272
0.131981
0.107358
0.105315
0.126944
0.12313
0.131365
0.131505
0.0370774
0.0373634
0.0854676
0.0874591
0.0111375
0.0967092
0.10151
0.180952
0.153177
0.0978202
0.097811
0.1181
0.111694
0.0736874
0.0737367
0.155003
0.141752
0.14181
0.0320949
0.0314709
0.0320663
0.0458736
0.045922
0.0146715
0.135048
0.140836
0.127538
0.0504051
0.0459365
0.0770047
0.0767526
0.116851
0.116613
0.118401
0.0252426
0.0268584
0.07938
0.080243
0.100269
0.102333
0.0348514
0.0383429
0.0460984
0.0455429
0.0199272
0.0204695
0.0216284
0.107798
0.112255
0.10685
0.0261815
0.0421556
0.0417064
0.0418629
0.037105
0.037456
0.036426
0.0435374
0.0453413
0.151465
0.0378266
0.041291
0.04959
0.0500323
0.0742099
0.0743227
0.0752615
0.0798741
0.0775053
0.0754155
0.0492285
0.0481698
0.0409303
0.0420985
0.0384446
0.0399284
0.040587
0.0384079
0.0401874
0.0115292
0.0272594
0.028606
0.0258249
0.0233503
0.0258945
0.000717157
0.137349
0.1365
0.135718
0.138234
0.138521