/*--------------------------------*- C++ -*----------------------------------*\
  =========                 |
  \\      /  F ield         | OpenFOAM: The Open Source CFD Toolbox
   \\    /   O peration     | Website:  https://openfoam.org
    \\  /    A nd           | Version:  6
     \\/     M anipulation  |
\*---------------------------------------------------------------------------*/
FoamFile
{
    version     2.0;
    format      ascii;
    class       volScalarField;
    location    "1748";
    object      p;
}
// * * * * * * * * * * * * * * * * * * * * * * * * * * * * * * * * * * * * * //

dimensions      [0 2 -2 0 0 0 0];

internalField   nonuniform List<scalar> 
29874
(
2.94293
0.17566
0.11411
-2.98781
0.182692
-4.53411
-1.17151
0.675428
2.50864
0.529465
-2.41382
-0.0378003
-2.01258
-0.279477
-2.1681
-4.36284
-2.95861
-3.27225
0.329672
-0.0575756
3.17245
-1.86633
1.16174
0.839099
3.7772
-0.694578
-2.11717
0.18611
0.457479
-2.70739
-2.54923
-3.6964
-0.602189
0.97499
2.80597
1.37072
2.78434
-1.79518
1.39253
-1.09285
0.945
1.11712
1.371
3.16774
-2.46265
1.71513
0.987192
-0.829501
-2.92834
4.18481
-0.367808
-2.48239
-4.1132
2.56712
-0.311726
-0.798861
-0.720343
0.802352
1.73979
-2.29648
-0.746668
2.12217
1.45967
6.09932
0.228815
0.931656
0.306981
1.12889
0.627625
0.558814
-2.04745
-1.56577
7.55238
0.469056
1.24598
-2.63871
-0.938468
-2.3785
4.51985
2.55357
-3.3786
-0.251981
0.959923
-1.606
14.4756
12.2716
0.424477
0.227781
-1.78196
-0.993466
18.1725
1.11586
1.18019
-0.597934
0.155858
2.90328
0.540022
14.2906
19.5649
-0.279601
-0.365928
0.452279
0.895994
4.6144
6.32006
19.4044
17.5608
0.177725
0.689006
0.341861
17.843
-1.61879
-1.77454
1.06221
0.967032
0.967361
1.9768
1.61108
24.3255
1.62672
1.3059
-3.48838
-0.0443817
-0.115032
-0.128372
3.29297
-1.23941
1.25196
1.61716
3.81599
0.67558
2.95589
2.52662
1.09818
0.718167
1.49381
0.979824
-0.18127
-1.71547
3.48427
0.990578
1.5254
-0.576218
5.53436
0.880219
2.84278
-1.28768
2.01297
0.527606
1.81942
-2.16415
-0.852589
-3.33683
-0.221883
-0.609639
1.10189
3.76797
-2.17653
-1.78859
-1.93871
-1.48972
4.34409
7.14493
0.857121
0.649252
0.961563
0.545297
3.31731
3.87088
1.02692
0.776149
0.633262
0.850776
15.7029
16.9819
0.777521
0.522574
23.8695
3.79149
3.8797
23.6714
23.6798
-1.51537
3.27115
4.13346
-4.55747
0.383328
0.451359
-0.232324
0.877964
0.892687
-4.85805
3.36429
3.4903
3.223
1.72135
1.40895
-0.51124
23.5295
23.629
-1.62606
-5.57228
3.26075
2.76332
2.1802
2.6902
2.19712
-6.23526
2.1153
2.22911
2.01633
0.466086
5.0246
3.33469
-1.44369
1.41539
0.663268
0.484418
0.503771
0.714983
-0.977946
-4.65232
-0.385894
2.13487
0.753002
0.457255
-0.392346
-0.207501
-0.646816
0.734322
0.765874
0.710025
0.00657187
-0.522298
3.31693
3.45041
4.33291
-0.59798
0.389033
-0.612265
-1.8045
22.2562
21.5742
3.67924
2.70771
21.0018
21.2553
-10.4997
2.51479
-7.21483
16.0342
1.94381
-9.50333
18.526
0.2308
20.6288
17.3144
23.2446
-7.578
17.5021
-3.75127
18.59
17.1232
-4.03283
-5.35161
-6.8044
-7.14959
3.07431
3.20194
24.6384
20.4807
20.8549
-6.76217
-8.20165
-0.415057
2.69439
-5.83389
22.2834
3.92835
-0.579127
-1.61961
0.0693568
0.54996
2.1634
1.89526
3.06167
1.06388
0.664782
20.382
20.1433
4.02498
2.6328
2.76205
-8.99261
-8.9012
17.3056
17.3204
-4.67763
-8.77631
-8.58861
-8.1306
18.1132
3.08438
19.3703
2.8695
2.95297
20.2011
2.13541
-4.7209
23.2118
-9.14888
-9.06643
-5.09083
-5.55162
-5.25783
17.8207
17.8003
-4.52876
3.43598
3.50407
-6.00601
-10.8015
20.1335
21.3505
3.79926
3.82029
4.12986
-0.651815
17.5086
17.2924
3.37586
2.7736
17.6281
17.5437
-9.05896
-5.57199
2.81158
2.34639
2.35616
2.28173
21.0264
-4.94882
21.4073
21.0747
21.1703
21.2667
2.04532
2.38862
-9.87536
2.74248
1.92342
-3.13423
-9.86689
-9.15324
-9.16377
0.440275
20.6672
20.3091
8.4551
24.6623
-4.25926
20.842
-6.82716
21.2457
21.303
2.63132
2.70784
2.41403
5.99563
20.0864
20.3647
19.4701
20.0381
0.811571
0.67266
19.6674
18.5045
18.3355
18.7235
18.0054
21.1894
21.5787
3.33457
3.13766
3.13505
2.94735
-2.72527
2.10707
2.00365
1.78373
-7.45088
-8.64722
21.9592
-6.22308
-5.4587
-9.7729
-9.28347
-9.84428
-9.89451
2.78551
-6.40254
-6.93787
-6.46632
4.51042
4.48949
4.00078
21.2587
20.9529
20.8339
20.7582
15.5942
16.8594
16.0722
15.7178
1.65799
17.8056
17.4713
19.0745
19.5984
21.0291
21.2728
21.5476
16.6969
17.7613
15.7325
16.7185
17.7039
16.2711
-1.19995
-0.695179
-5.14941
-5.86212
-5.99484
-5.35484
17.7637
-4.11315
-3.78695
16.8356
17.272
18.9313
18.1987
18.067
17.6638
19.6456
19.6904
1.57491
4.23758
4.31385
4.57485
3.5528
19.8895
19.6985
20.6165
15.1562
14.5938
15.1522
-6.44883
-6.05292
-6.49507
-5.97359
-6.82943
-5.72294
-7.29998
-6.54315
17.9281
17.6338
18.0375
2.47417
1.07071
0.95651
1.01791
0.898892
0.582959
11.536
3.77698
3.6416
3.56442
19.3212
19.6141
18.7852
-6.08385
19.6692
18.558
18.8826
18.9005
1.05174
21.1846
21.5246
21.354
20.7678
-2.11886
24.6121
-4.9518
-2.44771
23.8652
-0.580086
-2.48389
0.525864
0.601044
0.614593
-2.81808
-0.890843
2.53047
2.21798
-0.332943
5.51235
6.07248
4.20567
4.56059
-2.09378
1.41018
1.5255
10.6025
0.953384
1.0369
22.8514
0.533408
-4.28756
23.9086
-0.31751
0.903582
-1.22586
10.4652
-1.76916
-1.68011
-1.911
1.04173
0.543459
-2.00023
-2.16142
-2.14932
-2.03872
3.58631
3.68952
0.299804
0.395379
-0.483424
4.96726
2.76558
2.848
-0.205847
-0.266051
24.063
22.6692
-1.32387
-1.28388
-1.93701
-0.133267
0.163498
3.17459
-3.88263
0.705595
0.803172
-0.190727
-7.88467
-8.6697
-7.01558
9.17907
0.585866
-4.29559
-2.42946
-0.393194
-0.391528
-0.308262
-0.726099
22.7913
-3.05232
-2.74469
13.9743
13.1842
21.5675
-4.08065
-0.788595
-6.80007
-4.52534
-1.27126
-0.997263
1.13757
13.8128
-4.62566
-5.29707
7.44598
8.42978
-0.535451
2.62243
2.61235
-0.580128
0.582904
1.03088
0.85153
1.06512
-5.01943
-5.63091
17.6467
17.9896
2.31241
1.91298
3.85782
4.24335
24.1326
0.166914
-4.10496
1.96231
2.12223
2.33002
0.529787
0.592172
1.49878
1.51248
1.39132
18.6978
19.1638
18.7671
1.84043
1.8804
1.74014
2.0634
-5.71697
-5.16547
-4.94172
-0.438938
20.8117
3.82856
3.64943
3.37544
3.71534
18.103
19.0881
9.24359
10.2213
3.17941
0.00924636
2.80027
2.35499
-9.32678
-10.0076
12.3432
11.555
10.7491
16.4039
15.796
1.71222
1.80038
1.97474
-2.484
1.39707
1.07299
4.38797
5.16134
4.79218
-0.844226
-1.00704
6.03038
6.07928
6.71213
0.815598
-3.38235
-3.23271
-3.02554
24.6314
22.848
0.135302
0.273445
0.569506
18.9266
19.1355
-0.921151
-1.37382
-0.567557
-24.3395
-23.4243
6.4718
-10.0834
2.89864
19.0873
3.11284
21.6284
19.1723
1.35846
5.90027
5.26381
-11.7056
3.05836
2.96232
3.68673
3.83653
5.86782
-7.80704
-2.91918
17.7685
16.7347
3.29076
2.94465
-11.7345
-11.8213
-0.170957
-12.7164
23.6559
22.4144
20.9889
21.2282
0.229874
-4.02685
-3.59118
13.14
17.9676
-3.72979
22.9192
-2.19604
19.3024
5.96993
16.6188
16.852
-0.769663
-8.89063
-11.1356
16.1872
16.5605
-0.119789
-13.6182
1.6751
2.29908
2.88251
2.63688
-8.63558
-2.74312
2.59758
0.493363
-1.00653
-1.22137
-11.356
-11.173
-3.78529
-3.43572
-15.1175
3.46257
3.27063
-18.6002
3.26469
-7.51336
-35.3393
3.09124
1.23242
-6.71805
-35.0817
-28.7186
3.59276
-16.1749
-19.2753
18.8719
5.85155
6.08669
-2.83497
18.3912
18.1901
3.05319
2.3479
14.8939
21.8364
21.6128
-4.23406
5.29708
5.08382
-9.2798
-8.98373
-12.5125
-12.0844
-3.34044
-0.393384
15.8401
15.7978
-6.21727
-1.28522
-4.93607
0.0593728
-0.167775
15.5085
14.4658
-8.07699
2.22752
-8.53863
-7.22498
3.41218
16.8405
16.9965
4.39406
-5.28514
-11.4847
8.66574
-13.5827
-10.6985
-10.7547
15.5386
15.5769
-15.4201
-25.4395
-12.7282
14.6623
-18.2122
5.37983
3.07935
-4.63331
-5.80314
4.12061
18.286
15.0179
1.8753
-24.7695
-5.11059
-1.19116
1.85809
4.10065
4.33288
-10.4835
-10.3464
3.64988
16.2293
2.16057
-0.462297
-2.67137
6.47398
-0.322264
22.1604
19.174
-11.503
-7.43496
-2.86053
-2.0323
14.6504
13.6892
-0.994137
-1.76054
1.5273
-12.6146
-12.6625
-11.7977
-11.7886
0.414661
-0.721333
-0.914003
2.3511
-4.69858
-3.66112
-6.25815
8.14177
7.30967
6.75065
-2.65516
-3.37478
-13.7378
-14.0144
4.17507
-1.91715
-1.77569
21.4238
21.7024
21.4644
-10.933
6.52058
4.29348
7.60978
5.41631
15.2926
15.2144
-10.0232
-4.08169
3.16696
-3.27282
-11.5314
-12.4152
5.91814
-4.39632
-11.1468
2.93512
-7.60911
-8.17414
-9.25445
-9.82491
-16.6073
14.5612
15.564
15.886
2.55592
-10.3089
2.60336
2.069
5.70318
6.76276
-6.65799
-6.71002
-11.0082
2.73783
2.96101
2.28963
2.15514
2.39218
-4.34424
12.998
-24.107
0.0674318
2.12008
2.30937
-7.32754
-7.4337
1.13816
17.0495
-11.101
-12.0853
-11.7106
5.08051
19.2343
4.04894
1.44069
-22.5659
15.5722
13.4829
3.94234
3.8431
4.04222
1.08606
-2.18249
-20.3124
-0.432461
0.458456
-6.58998
-11.0497
-10.8865
-2.38435
-17.0744
-1.46838
-11.1841
-12.8329
17.1199
16.7796
23.8799
-10.9068
-10.6582
-10.8666
22.0364
15.1985
14.9835
3.20952
-10.8329
-9.76584
-10.5896
3.99938
-4.5764
5.86629
20.8335
-11.452
3.09148
-0.465911
4.05017
3.63594
1.72444
1.89035
2.21299
-11.8981
20.9058
0.850574
1.41735
23.5871
2.4808
-3.74311
0.98372
0.891099
-11.5326
12.4029
-0.343042
-0.441878
17.9539
-4.54251
-7.05912
16.6067
-6.24947
-5.71081
1.25581
4.8102
17.4967
17.3497
17.8315
15.9437
3.00028
1.95476
0.591083
0.723565
-3.66368
-4.30913
-9.47259
-8.31135
-9.36036
16.5508
16.8081
19.0852
0.564667
0.844071
-11.4267
-11.6059
-8.15384
-8.47499
-5.06096
-4.51765
-6.14995
-4.45595
-3.8704
3.5628
3.09754
15.8438
16.4021
-11.0592
22.2738
17.5944
17.2532
-12.5337
-11.9075
-10.8203
-12.7722
4.21195
3.22634
3.43575
3.42771
3.32703
-8.32493
2.7626
3.14698
3.53745
-4.3053
-4.00931
-4.42139
-3.90469
2.16609
-12.4255
-11.6061
3.47117
17.6224
5.28058
5.90419
5.55922
17.3385
15.5304
15.5526
16.7441
17.0146
-0.747135
-0.295364
-1.04312
-2.89212
-2.31942
-2.51067
-2.29496
19.0168
19.2752
-11.7773
-11.6258
-11.4314
-11.5976
-3.33888
-2.36008
-3.10505
3.00446
-3.26301
4.5105
15.6504
-9.89756
18.4287
-11.3062
16.9402
16.9213
3.24618
3.29041
3.33037
1.757
1.60612
2.12291
21.3662
1.78827
1.67451
1.88075
1.70745
1.7713
1.70057
1.48797
-4.83011
-4.34296
6.11447
23.4055
4.04563
-6.94021
4.88665
15.6084
-8.35967
3.65239
-18.5278
-1.83134
-1.7495
-14.9868
16.0469
15.9344
15.9881
2.44961
2.28708
2.76546
2.98058
2.50042
1.0201
0.876761
0.850608
15.9817
5.49357
5.01118
-10.1534
-9.35667
1.87284
-11.0111
-11.8078
-11.1518
-2.71265
-3.38177
-2.6738
22.0358
-18.2185
23.0655
3.53829
2.85469
3.19893
1.50263
21.7863
17.6875
17.8964
3.33967
17.4229
16.9073
16.5791
16.8645
0.46616
1.03714
14.1637
14.0287
-10.6872
-10.7868
-0.411516
-3.21133
-8.11806
-7.13271
23.371
4.48291
4.05653
4.58955
1.28461
-12.8338
-13.1016
-12.3409
-6.21356
-9.69945
-9.58058
1.17097
0.744072
5.49621
3.39759
3.5409
3.27543
3.2961
3.31547
3.23967
21.774
3.4432
2.82523
2.75647
2.46807
2.77583
23.5753
18.962
-1.24395
-1.43985
3.1861
3.26005
3.28193
3.12851
3.15397
2.61919
15.8171
15.8618
3.34265
20.7154
5.04447
4.51034
-10.1924
-10.6818
-11.1561
20.3749
4.07292
3.72745
23.801
21.3967
21.2738
8.58711
8.33974
8.51752
-3.44248
-10.1707
-9.14168
3.96883
3.61376
16.5536
16.6647
16.9134
0.941474
0.386991
15.9306
22.6687
5.71189
-9.681
-9.71599
-8.74978
21.7853
21.8573
3.8733
3.92789
3.49197
3.13817
2.951
3.10017
15.0635
23.8408
0.677176
20.1481
5.18461
5.18467
-16.1465
-16.957
17.9511
17.8613
1.3067
0.819072
0.472569
-0.152535
-0.0966155
0.713128
-8.77177
-8.14325
-2.107
22.1521
24.1383
-11.9565
16.8908
16.5101
-19.6357
-19.5485
15.7654
-11.3936
-12.2302
18.682
1.82919
2.10743
13.5895
13.8954
-15.6047
-11.6517
21.4368
6.75423
6.89394
-1.22228
-1.4624
-9.25327
-9.04754
24.1485
24.1394
-11.1851
4.50433
4.15381
24.3384
4.35008
4.80491
13.0615
-13.3519
-13.9559
-13.1489
5.11845
3.18221
3.533
3.15631
3.25445
3.42992
-11.2765
22.9432
2.969
3.30939
3.37164
3.28492
1.60624
1.19689
2.87932
3.55127
0.101552
-0.0337873
7.72852
3.06131
3.21559
21.0522
21.4342
-10.4073
-10.8565
-11.0111
-10.8546
17.0799
-11.426
3.02925
3.25989
-1.75081
16.7358
16.6574
21.3353
21.7323
21.3371
21.2792
3.17759
12.9804
12.7453
12.5303
-4.06342
-3.49174
-3.08388
-2.68301
16.0946
15.3172
16.2727
16.7283
-6.67534
-7.11419
-7.36153
23.0315
23.3018
18.613
18.5037
15.5643
15.8381
15.7197
15.7088
-16.9618
-12.096
0.435774
0.300994
-5.4005
-9.43334
3.89789
4.21726
-9.97983
-9.76775
-9.72528
-8.77863
4.87584
4.51198
1.04399
1.00357
2.104
2.24491
16.7694
17.0566
16.6286
16.2416
3.36036
3.29684
3.13228
3.32813
-1.98064
21.3465
2.27247
2.54226
2.78764
2.61988
6.32944
-10.3533
-9.85977
-10.4225
-5.94298
-6.90319
-6.57322
-6.8522
15.8934
15.4719
15.8401
-5.76901
4.38587
-9.27029
-7.70108
-9.57553
-9.64488
-9.03129
16.9333
16.7679
16.954
-8.12198
-11.5302
-11.4254
-11.4054
-11.4408
-9.91416
-9.43245
-9.87604
16.8087
16.536
16.3564
-2.58939
-2.03316
-0.804282
-1.48938
4.42109
4.35397
4.57932
1.98575
2.25071
1.74783
4.01057
3.85924
3.644
3.38
3.363
-11.1201
-10.9005
-11.0738
-11.1638
-11.5213
-9.62066
-8.78747
17.0198
16.705
16.5875
-4.09392
-4.74778
-5.26183
18.2534
-4.90719
-5.11703
-7.97222
-8.53682
19.8725
19.2343
14.9869
15.1559
18.0107
17.6971
2.03031
1.83448
-15.2062
-8.54139
-7.75678
-8.42224
-12.8862
-13.4012
-15.1567
-5.52883
-6.12391
-6.38354
-6.88928
-7.63615
2.9702
2.49342
3.11423
3.14167
-23.7473
-23.3366
-11.3139
-11.4659
-10.4967
-11.3643
-7.99911
0.786446
3.51261
-22.9374
14.5602
14.8581
3.40089
3.35743
3.2192
20.0151
19.9956
19.8592
-8.76207
-7.76254
2.34527
2.0382
2.30567
3.22199
3.03146
3.01153
3.05764
2.12707
2.51575
2.46811
-6.81519
-7.00264
16.5162
16.6686
16.8488
2.57702
1.85411
3.29209
3.47875
3.75198
3.07299
-8.77381
-8.52125
-8.77442
-8.30167
-11.577
17.0282
17.0319
-0.430518
-1.16237
-1.51982
-0.952836
18.3772
18.1814
17.92
18.2596
5.50817
5.66119
5.63395
-2.73404
-2.01011
-1.22743
-1.31736
-1.08303
-1.35416
-2.06831
16.2353
17.3258
16.6262
16.9496
19.2799
-6.68926
-7.04462
-6.50159
14.7986
14.5311
14.2596
16.6597
17.0751
-8.23174
-9.18038
-8.62357
-8.45285
-5.5402
-5.05609
2.65948
2.26034
2.56319
2.44757
3.25527
3.66825
2.96617
5.07705
4.65016
2.38045
2.71668
15.986
16.2625
16.0916
0.992153
0.814948
2.1908
2.17332
2.16549
2.30725
15.115
15.3891
15.4158
-7.88646
-8.23322
-6.93341
-8.07772
3.58878
3.61326
3.44222
-7.66415
-7.38141
-8.1215
17.928
17.9535
16.2921
16.3303
16.0726
17.3328
17.024
17.0419
16.975
17.9687
18.0408
17.8588
2.99025
3.18251
3.00531
2.74506
-13.7699
17.0109
16.7455
17.1368
16.9409
-11.8385
-11.7767
-11.7611
-11.6307
-6.06161
-5.54674
-6.43539
-6.87686
17.1879
17.1978
16.5757
22.9468
22.9519
23.0104
0.472476
2.61537
2.17516
2.44263
13.78
5.01539
4.7338
3.86706
-8.9271
-11.9594
-1.69531
-10.346
-10.4806
-10.3508
-9.88323
-11.9774
-11.9119
3.13304
3.12409
2.76755
17.0308
16.8258
16.7402
3.37591
3.26013
3.25353
3.66247
21.6823
21.7718
21.4513
21.7362
-5.8109
-5.59737
-5.39538
3.66389
3.50689
3.66446
5.30534
4.50563
4.54733
4.49543
-7.47219
-7.61887
-7.14592
-12.2694
-12.3453
-12.2837
5.15243
15.5498
15.0186
14.8816
15.1586
-4.97077
-5.43904
2.9722
2.71612
3.83872
-0.177132
-11.3624
-11.2616
-10.8497
1.4067
2.26559
1.04212
-9.50193
-9.09559
-8.76889
-8.47674
-9.65223
-9.9011
-12.9827
-12.7703
-12.1587
1.02316
0.846113
-0.0107416
2.3002
2.23035
2.22186
-8.6723
-8.40326
-8.65376
-8.37391
-26.543
-25.6667
-3.54129
-10.8262
17.9687
21.2972
3.61964
3.2399
3.66476
20.6004
-26.004
-1.97703
-1.45786
-1.97348
7.8279
7.78671
-2.30041
22.1332
1.7084
1.57012
1.91989
1.73571
1.78083
1.42476
1.48148
-6.40681
-7.51554
-6.7897
1.90794
2.50472
2.97507
2.7907
2.52725
2.7869
-3.54815
-3.84015
-3.41023
3.3646
3.21301
3.11817
2.94977
-13.4491
-12.826
-10.4363
-9.91942
-2.29859
-0.184128
-0.610402
-0.121679
-0.183246
-6.38986
-6.01533
-10.2686
-9.91171
-10.4125
-10.407
-2.13345
-11.9463
-11.9349
4.09006
3.23387
3.41977
3.58728
3.38619
17.8564
18.1749
18.0634
-5.27434
-5.05001
-10.9859
-11.3063
-11.1817
-3.47916
-2.98794
-2.46924
-1.71296
2.62668
2.21089
-12.0983
-13.6418
-12.1443
3.33409
3.30257
3.477
17.4516
16.9738
16.7561
17.1962
16.7896
16.8622
1.54308
-5.08312
-5.87316
-6.02017
-6.03797
-4.13089
-4.47933
17.0771
17.4214
-3.80622
-2.86597
-2.4133
-2.54021
4.65406
4.01614
4.49382
4.58918
-2.40133
5.51621
5.43475
-9.29158
-9.73914
-9.69812
-9.77781
-10.1274
-10.3587
1.29215
2.74565
3.0687
2.90735
-1.01738
-1.65729
-1.62965
-1.6164
22.1459
17.6257
18.2265
-15.6581
-16.8568
-9.89779
-9.20158
-9.72545
-8.97329
-21.2936
-4.55256
4.21942
4.47402
-18.4913
3.0824
2.9231
-9.18922
4.09708
4.19092
3.49077
3.57196
20.4828
20.7601
1.70381
-10.6104
-10.0084
-10.6111
3.9901
-6.08525
-6.82109
-6.5822
-5.54982
-6.21132
-4.68308
-5.28059
2.33761
2.11632
17.9768
-10.4203
-10.07
-9.55404
-10.4913
16.5248
16.0787
16.8522
16.933
3.31381
2.87433
2.62809
3.0795
3.02019
20.5784
-5.1076
-4.85133
-5.00511
-4.12989
-7.57686
-8.28631
-8.3707
-8.06403
1.504
1.43745
14.6578
14.355
14.7036
-5.58819
-5.50279
-11.6891
-3.78073
-4.17029
-3.16391
-2.76999
-0.531105
-0.976264
21.6894
18.069
-6.47923
-5.97965
-6.37262
-6.64066
16.9661
17.1395
16.7851
21.5227
3.52848
3.71529
3.31463
1.30317
1.25097
3.14365
-5.91934
-1.75858
-0.439876
-1.00579
3.74501
3.45839
-4.3327
-3.51974
-4.66637
-13.3859
-11.7141
-11.6747
-11.6856
-0.931515
0.0935277
-0.871775
2.93483
2.72903
3.0286
2.46294
2.71102
20.5293
20.9178
20.9132
21.1959
23.4177
-3.6021
-2.84244
-3.58107
2.1068
2.44902
2.72347
22.3109
23.5333
4.69887
-11.1823
-11.2928
0.742063
0.875928
-10.6517
-10.7484
-10.4399
3.22285
3.24223
3.40813
3.30319
2.46199
-1.03112
-0.678626
0.0497114
0.0958985
2.13961
1.82312
14.9609
15.1828
3.57111
3.63717
3.67743
3.52633
-13.5333
-12.5239
-13.5841
-11.5356
-11.3554
-11.4758
-10.7262
-8.45345
-7.70576
-8.6536
-8.87054
-15.2057
-11.713
-11.735
-11.5871
19.634
20.8789
20.9829
20.3205
20.6445
-9.08876
-9.21646
-8.69861
4.21412
4.06818
4.24884
1.47386
1.51963
-2.52624
-3.26155
-2.95789
-3.71265
1.21778
0.634124
2.12716
1.72487
-0.572868
-1.25528
-0.616476
-0.500313
2.99686
3.07834
3.22898
2.80834
-4.41019
-4.5709
-4.38258
-20.9321
17.4615
17.7057
-7.01724
-7.76701
-7.64143
-7.25264
-9.41575
1.51277
0.950406
1.74079
1.42054
6.16975
4.93554
5.73041
5.27888
4.85433
-10.9944
-11.0685
-10.5922
-19.3072
20.3894
20.4303
3.84304
3.85116
3.38033
4.90765
5.10409
4.85507
24.728
-12.1628
-12.6991
-12.7675
2.14105
-11.7182
-11.8383
-11.804
18.5107
18.4094
18.2781
-11.8495
-1.79998
-1.16343
-0.575603
-0.111915
22.8002
-11.1059
-10.9626
-10.0099
-11.6557
3.47663
3.3042
3.36746
17.0706
17.0224
-10.6617
-10.6453
21.6984
0.864046
0.0366212
0.995703
1.59745
-8.81132
-8.14666
-7.93953
17.4761
1.49184
1.51362
2.83572
2.95523
2.56564
2.78884
19.7562
20.2431
20.0419
20.5081
17.486
16.5051
-7.67134
-2.5993
-1.86847
-2.21389
-2.31383
17.2537
17.5585
17.0177
16.9798
-6.13737
-6.22638
-8.68085
-8.06716
-8.56037
-8.68246
7.26742
-7.37244
-7.75371
-7.62264
-7.99973
2.52389
3.29012
3.38862
-8.66759
-8.1963
15.8881
15.7237
3.32422
17.1406
17.1799
0.57472
4.74993
2.17469
2.20125
2.47106
2.3023
-5.78551
0.168942
-17.5567
24.0093
24.0165
20.256
-16
24.1061
24.0192
23.9904
-20.0897
-0.245636
-14.4391
-0.113928
23.9037
22.8364
23.4573
23.6473
-1.84358
-0.0541786
-0.0292571
0.0395503
24.2266
-4.75324
-4.12514
6.2635
7.14504
-4.0695
-4.55798
-1.10814
-0.0585555
20.5499
24.2306
23.913
-0.495368
22.5384
23.0711
23.4872
22.9345
20.9365
6.77697
1.71998
-16.1167
18.4032
20.7838
23.7148
0.389039
24.0352
24.0191
24.0111
-1.83594
23.8953
-4.19442
-4.62405
23.6832
-4.15388
23.7873
-12.225
-12.7051
22.1121
20.2747
21.2822
0.957103
-2.79468
22.0367
0.969825
0.74955
-16.1385
20.7581
21.1768
0.486983
-0.486711
0.559482
0.793054
-19.0373
-19.5558
7.32512
-25.7952
24.4506
24.5952
0.462021
0.232013
23.7952
22.6301
-19.2125
22.2451
23.7878
22.0204
9.80452
11.3925
10.6814
-6.90306
22.0417
4.47931
24.3895
24.7124
22.2033
8.44811
7.78598
19.8126
24.3955
23.1926
23.2548
0.822824
-8.43273
5.85428
6.78192
6.1573
-3.61006
20.5485
-1.51585
24.514
24.4483
24.5287
6.99709
20.5129
22.146
20.6951
18.5951
18.5394
18.318
22.1834
23.2843
23.2309
22.8551
23.2516
23.0334
18.919
24.1315
24.1305
19.9233
18.9641
20.7518
23.0944
23.5097
23.521
23.4552
16.7641
16.8305
22.7353
22.9088
22.9691
24.5488
-27.4641
23.6799
21.1917
24.6727
24.7069
23.1817
23.5964
23.455
23.9243
23.8824
22.1989
22.8636
1.727
-21.5138
-11.0612
22.8822
-27.5733
-26.4872
-13.118
22.1537
2.86975
21.5982
-0.635915
22.2972
4.1941
23.2052
24.3066
1.36189
24.5326
0.36878
0.0655175
1.88782
2.16869
20.0798
23.9554
-2.7597
0.767717
1.04261
21.9269
-12.1404
-12.2256
2.66328
23.9344
20.8892
24.5924
24.4291
24.3973
24.3868
24.0772
23.6316
3.46329
22.4055
23.631
23.5747
20.9243
20.7973
22.7316
22.7424
-2.81513
11.0956
24.2657
24.6302
1.59792
1.62721
22.5341
22.4743
21.0869
21.1216
18.7262
1.34006
-14.8839
20.4108
21.0868
20.3667
-1.05521
-0.96994
-0.640102
-0.156799
23.2617
23.0916
1.93657
-13.0809
20.6274
18.2298
17.8492
23.3914
-1.31044
0.211047
20.4261
20.5276
21.9261
-3.00031
-2.81331
17.8323
17.9237
23.1457
-5.79169
-6.95197
17.3652
17.5241
19.8633
19.9421
2.11203
1.81049
-0.480907
-3.50248
-4.02477
0.42289
0.362435
21.9314
-0.757173
22.8766
17.8361
-2.96868
22.5418
18.6455
18.938
-22.5256
-0.44409
21.6882
21.8306
21.0367
22.2374
22.2706
7.17458
22.5595
22.3599
22.9138
-1.05999
2.36452
2.25435
23.6191
4.36358
22.9568
-20.7374
-2.44792
-1.9067
0.0947945
22.1797
22.2468
21.0559
-23.7865
19.9893
18.7797
22.0737
-3.42405
-3.36073
22.4243
21.8161
21.8883
21.9433
21.997
-25.3648
24.2994
-5.60813
21.8181
18.6501
18.5313
18.7587
22.8213
22.1903
-1.11185
7.35927
6.78967
0.0444492
0.128873
-18.0223
22.1632
-18.1159
18.8452
18.8145
7.98249
8.73282
7.81106
-3.77811
-3.51963
-18.0272
-0.413916
19.0355
1.22854
1.33799
1.46404
19.1161
22.3161
-1.83156
-2.41961
-0.283356
-2.13162
0.709783
0.289391
1.69075
-3.92665
19.4429
-8.50924
-6.9088
1.31173
0.955687
2.28953
22.5996
22.4094
-0.716636
-13.6339
22.0897
18.1523
18.3939
17.5857
17.3675
17.2976
-10.5247
23.5046
22.5974
22.6213
18.8455
20.5295
1.78971
1.70184
2.16267
1.85951
23.5436
23.5165
-2.72314
20.7086
20.662
19.9584
19.9041
19.473
20.9605
20.8282
20.5621
0.994291
1.09977
1.26225
4.59012
1.76289
0.605039
3.46639
-6.52274
-6.30476
23.8147
9.35191
-4.8887
-3.89194
-4.28477
-10.8402
-10.5031
3.40152
19.5905
19.1006
19.1143
24.5315
-0.0367225
21.4545
-10.3024
-10.5632
-10.6405
-10.4161
24.2173
3.07098
2.80677
24.0543
18.1599
-5.01362
0.656777
0.759831
-0.53131
-0.454969
24.6612
18.0673
-5.96929
-6.80646
-6.51042
-7.34052
24.3845
-1.98341
-2.67692
-2.0439
0.693862
0.659359
-2.99889
19.1564
19.0216
-0.696178
19.822
-8.53197
-8.28824
-8.73604
0.491472
23.0496
-0.849317
-0.412495
23.4369
23.6625
2.01149
1.65265
7.86629
9.13108
17.6609
17.6411
23.3046
-7.71633
18.394
18.3295
18.1059
18.1776
0.672265
-1.27136
-9.51025
-9.96796
-10.5072
23.8716
23.8697
-5.75879
-5.95486
-5.89626
-10.0016
-7.95216
-12.7399
-13.145
17.7886
-4.79379
-4.53615
24.0683
17.058
17.4811
17.3879
16.9929
18.4455
18.569
-1.64843
-2.56386
23.238
-4.31829
-4.81936
-5.08247
1.61895
1.05912
23.0425
0.661991
21.8838
22.6661
-3.77325
-3.70684
-3.06962
-8.43602
-7.95344
14.8935
14.2294
19.1635
18.9231
17.9013
18.526
18.4203
18.9246
19.3883
19.1973
18.9699
19.175
17.4629
21.4859
22.7497
10.8827
-12.4035
-12.5594
-12.194
23.61
21.5808
3.54177
3.27046
1.99803
2.09458
1.88665
20.5748
-10.9459
-3.57641
23.8364
-0.0439753
-4.94148
16.9592
16.6003
16.5868
-0.793712
22.1948
24.7014
-6.45602
-3.32663
-0.577022
19.3293
19.468
0.771588
-13.5276
-13.9877
22.2665
-5.12763
-10.0855
23.0924
-0.901696
-1.52852
3.32984
3.42014
-0.628617
20.6977
-16.6511
18.5147
21.7568
20.4006
20.0054
0.536473
0.197827
19.1277
19.1726
18.8373
23.269
23.2441
0.207018
-0.503802
0.918876
0.947612
3.60546
3.3514
24.4176
17.5289
17.6843
23.1289
23.0973
1.81241
1.68847
-5.0129
-3.14501
-3.07776
-0.209248
-0.579338
0.769213
0.587651
12.5648
0.792983
0.795085
-10.1964
-9.99797
17.4667
17.5342
-6.65323
-6.24014
0.4444
-18.0768
-17.4015
17.9074
17.7062
17.6114
17.5541
-6.07706
-6.439
2.06302
1.94386
1.80339
1.55014
2.1589
2.41454
21.5213
21.5667
1.42001
1.65833
1.53222
22.395
21.4165
6.53425
7.49018
21.1756
17.3641
17.3276
17.21
0.217427
-6.7117
-5.61238
23.6443
19.2921
19.1571
-10.1996
0.651996
22.1407
-1.59727
-1.48149
-3.74004
21.6747
21.8596
4.15989
4.27412
4.65578
4.66564
3.17153
3.09637
-3.30079
-3.37114
-0.138137
-0.353475
0.646863
0.608386
0.638271
4.68836
-8.35639
-1.96145
16.8522
17.0948
15.6054
16.5873
18.1792
18.5077
18.5088
3.21525
3.12512
18.6361
-3.87749
-13.769
20.1742
1.17012
1.2582
5.69211
0.857972
-0.296032
0.363928
0.55331
16.767
16.9833
-0.711796
-10.7093
-10.1164
17.687
2.7166
2.08452
-6.16972
0.585529
0.63615
17.4015
-13.3553
0.42794
-1.50061
-0.402027
-0.224263
18.3742
18.2491
19.5047
18.9342
18.1062
18.5347
4.49691
23.2785
17.1077
17.1914
17.1948
-6.92995
22.0298
-7.74854
-8.23341
-10.2266
1.62479
1.49525
1.77839
3.19292
-5.51616
-6.34192
2.48799
2.98146
2.75423
1.55664
1.28499
1.23781
0.0590582
-0.0567406
17.2946
17.2127
21.4134
21.555
21.4396
0.993249
0.9143
1.43111
1.51857
-12.9572
-0.693309
5.38412
6.35543
-5.88165
-5.98674
-9.17543
-9.61805
2.94713
2.89995
2.81766
8.84562
8.15988
9.5127
-0.263365
-0.309679
-0.131585
1.46139
1.7636
1.48068
16.3866
17.1317
2.49929
2.3695
2.11161
-10.4365
-10.1098
-10.4683
1.47246
1.39039
-10.9457
-11.1853
-5.22141
-7.31721
-7.26067
17.8097
17.7528
-18.2412
-17.6089
17.7872
17.4739
17.3998
2.98964
-2.85136
-0.317592
16.8067
23.9478
0.279684
23.2939
2.57648
2.6531
-9.82966
22.0787
2.70204
1.36427
1.23669
2.9262
2.86921
17.0321
17.1997
0.644111
5.22451
5.07885
-5.08084
4.25949
4.01112
3.7509
0.136166
-0.259847
6.01822
3.44329
3.44566
5.16841
5.49932
0.977141
1.28197
18.8327
18.7834
2.72985
2.99669
-24.0033
3.79045
3.97268
-4.28957
-5.42704
3.25188
3.22693
5.42124
5.73066
4.1114
3.98839
-2.29608
-2.47012
-2.66742
18.5604
18.735
18.8423
17.5579
17.7105
21.6217
-1.5114
-1.40693
8.06364
-5.76225
-5.86904
1.18853
0.968764
-5.25162
-4.18163
-5.33472
-8.1349
-8.52125
1.34565
1.48417
-0.361031
-0.120247
17.8271
17.0363
-10.5078
-10.2234
-8.11514
-8.4259
-8.61533
-7.6229
-7.12497
-8.62148
21.2892
-5.0827
-4.82039
-4.9165
18.6616
18.6805
19.0684
16.4413
16.0157
-0.705064
20.0277
19.9803
16.9519
16.8787
0.815496
0.985124
1.07323
3.34708
2.88751
2.85947
16.7984
16.99
21.6296
21.4495
18.627
18.216
18.2398
-3.1927
-3.7433
-6.45418
-14.463
-14.1644
20.3515
20.3187
20.6344
23.8873
3.96262
4.41868
4.90859
-0.323716
-0.279319
3.4537
17.8311
18.4433
17.9936
18.5441
17.6967
16.8675
17.5642
18.1632
1.12737
1.10246
-5.72612
-5.15405
-5.6378
-3.27207
-2.99694
-22.0093
-2.31388
-2.53481
-9.06561
-1.9239
20.4812
20.498
-3.91433
-3.54011
-3.54126
1.31398
1.25185
1.07118
1.09058
0.668815
19.4474
2.04992
2.48219
-0.194711
-0.0643176
-0.180641
-14.7066
-14.1907
-12.6423
23.3278
23.1842
-16.0359
-15.4679
0.495879
1.12922
20.9609
21.0558
20.4671
20.992
-0.852829
-0.820921
-3.84335
-4.31355
-0.0781341
-0.342441
-0.615414
17.2246
17.2479
15.8469
0.77191
0.700619
0.734137
-2.9646
-4.64808
-4.4783
-5.29794
0.905955
1.86759
2.54663
2.06895
0.901328
0.808732
0.735783
3.92355
-0.958623
-0.709448
20.1314
8.10733
0.558578
19.9596
19.4802
-13.9598
21.5369
1.14952
-11.8414
-10.237
-8.25472
-11.5535
11.2144
7.26447
-1.80488
6.00877
-4.6281
-1.71792
9.75395
5.06712
-17.3121
8.48814
4.28111
-9.55213
6.02953
12.479
11.8224
-7.74153
7.18958
5.23699
9.88313
-8.7751
-15.8736
10.3816
-12.1275
11.7922
6.62726
2.68523
-7.0145
-13.2646
11.0776
12.914
6.51194
6.53655
6.50876
14.7754
9.62624
-0.889321
-1.77851
-1.94037
-21.5793
10.4712
12.0653
11.6138
2.0627
2.92792
2.52641
3.29932
4.85593
10.0927
-14.2554
-14.5353
-7.53465
7.07413
-12.2827
1.5538
11.0691
-1.88629
-6.82401
11.103
1.99893
-2.45103
-7.91264
11.5028
12.38
-30.4373
10.9606
-6.71135
-0.0528701
15.2964
6.83583
-9.76819
21.1868
21.5998
-11.1831
-11.9053
6.69522
7.58518
7.58709
-7.02781
-0.273961
5.14804
2.26333
12.8394
9.62864
12.9511
-4.69497
-4.80119
10.4306
10.0211
10.7086
-19.3377
13.4912
13.3641
-4.70903
-4.96403
2.85207
5.28822
7.25152
7.77518
-13.5857
-14.8005
9.89166
10.6556
13.2239
13.5351
-0.0861856
0.949711
-15.4805
-16.3934
-0.309394
0.590523
-14.4963
-9.1458
-10.2727
8.26456
7.88466
-12.8586
9.6411
8.81581
4.47967
4.88096
5.75073
6.04685
-13.3468
11.2554
8.60791
-1.16565
1.76172
-12.883
7.99359
-15.1079
-1.7142
14.9227
-2.00987
1.88115
10.974
6.49434
-0.19041
0.509266
-11.8429
-2.64396
13.5745
2.11601
1.19846
-1.44664
5.48181
-0.487336
-1.43277
8.04035
8.93084
8.6565
6.65491
16.5478
-3.51392
13.9229
11.4658
11.9805
1.75062
0.965708
15.9482
16.1349
4.76931
-20.0284
-0.473417
0.357737
-10.8112
-10.9412
9.96446
9.95719
-8.83812
-9.37221
-10.3553
13.979
14.2475
8.82486
-28.6234
9.29053
10.6579
10.8256
-16.7051
-3.81592
6.78151
-17.8106
5.44357
-22.0172
-4.68468
-3.39154
2.80291
2.43449
-14.5879
-1.35954
5.63889
2.50128
1.94534
1.07861
1.7888
9.98113
12.9416
13.1689
16.0561
-2.20865
-3.01729
-12.8577
10.1909
5.45003
-15.2983
7.39844
7.38605
7.82032
1.19504
1.79286
10.7106
5.91566
6.09122
2.70955
2.95842
10.5242
9.72859
3.02713
3.792
-4.90118
11.4339
10.9625
-14.6464
2.06044
2.17397
1.83956
2.28089
2.45605
2.34541
-12.9304
-2.69078
1.17088
2.38232
3.22016
5.20648
2.50813
2.16565
12.6252
12.3185
3.11357
-10.956
12.3152
-14.8926
-1.02268
-0.364267
12.4111
12.1844
9.65011
9.12179
-12.461
6.31768
-4.7541
-4.69744
7.84283
8.58908
5.45386
-0.414057
-0.115363
0.451717
13.474
14.3256
8.78232
9.16265
10.2604
10.8206
10.6273
10.7989
5.08555
4.3788
-12.9113
-13.1109
-1.03573
-0.803543
-1.53825
-1.72879
21.1868
21.1563
21.4112
10.9703
10.6455
10.6016
5.56059
5.33934
11.2442
11.3028
11.3603
3.26978
2.31716
14.3191
13.4432
11.091
10.9301
11.4071
11.7089
-11.7127
15.2487
15.379
-0.638978
-1.80975
9.29473
9.03902
3.69771
4.30757
2.27081
2.98191
9.50852
6.3772
0.820338
-7.16025
-7.60334
-12.8525
1.84668
1.49931
2.17167
2.96614
8.43045
-9.60479
-10.4496
-9.45022
-1.92374
-0.19614
0.773232
15.2924
15.9525
3.24014
2.63643
11.7258
11.9897
-3.16776
-3.44544
13.9133
14.1244
2.35945
3.08209
10.0155
10.2312
10.4659
10.184
8.79207
8.99725
-3.79305
-2.8092
11.365
11.185
-16.2301
-15.0743
22.0261
8.98142
9.66887
9.87633
-8.75026
-9.45982
-1.8424
-1.66764
-4.83058
5.38477
5.39367
2.75902
2.18625
11.2519
11.4314
4.73185
-25.3949
-14.8843
5.84058
8.35901
11.9237
9.83241
-1.14476
4.35271
3.78889
9.57334
10.2354
14.0809
14.6381
14.1079
11.0392
10.5013
-12.7656
-4.112
10.5856
10.7955
10.5333
11.004
3.6661
3.4407
3.149
3.25262
1.78001
4.00262
3.17933
6.37953
5.41781
5.62805
5.62387