/*--------------------------------*- C++ -*----------------------------------*\
  =========                 |
  \\      /  F ield         | OpenFOAM: The Open Source CFD Toolbox
   \\    /   O peration     | Website:  https://openfoam.org
    \\  /    A nd           | Version:  6
     \\/     M anipulation  |
\*---------------------------------------------------------------------------*/
FoamFile
{
    version     2.0;
    format      ascii;
    class       surfaceScalarField;
    location    "1748";
    object      phi;
}
// * * * * * * * * * * * * * * * * * * * * * * * * * * * * * * * * * * * * * //

dimensions      [0 3 -1 0 0 0 0];

internalField   nonuniform List<scalar> 
44596
(
1.53619
-2.16221
0.626012
1.53619
1.44643
-1.44643
1.93756
-0.491134
-0.0936849
-2.146
2.09907
-0.56288
1.3095
-1.3095
0.215907
1.8168
-2.21225
0.765819
-0.267228
2.30057
-0.799527
-1.20586
0.799527
1.29955
-0.560056
-1.34299
0.560056
0.749444
-0.593549
-0.82573
0.82573
-1.17061
1.38652
1.19423
0.637072
-1.83131
0.0431279
1.50309
-1.54622
1.42595
-1.42595
-0.146982
-1.67434
1.82132
1.54791
-0.0870704
-1.46084
1.12391
-1.12391
-1.10385
1.10385
1.12299
-1.12299
0.23866
1.24411
-1.48277
1.37182
-1.37182
1.46769
0.0802129
-1.31522
1.31522
0.267117
1.34935
-1.61647
-1.58206
1.58206
0.60097
0.582185
-1.18315
1.94135
-0.5154
-1.25356
-0.217595
1.47116
-1.42863
1.42863
0.706559
1.29325
-0.793349
1.49991
1.47158
-1.7669
0.295313
-1.62239
1.62239
1.05503
-0.816369
1.24538
-1.41597
0.170586
0.961351
-0.961351
1.20085
-1.34784
-2.30919
0.830754
-0.830754
1.00793
-1.095
1.83869
-1.92576
-1.58655
-0.613639
-0.789693
-0.796858
-0.897801
0.897801
-1.03976
1.08289
1.98069
0.0634409
1.4873
-1.55074
-1.53503
0.135093
1.39993
-1.55074
-0.458151
0.00818398
-1.43681
0.113408
0.211372
0.259672
-1.81041
-1.50722
1.81041
0.529186
-1.20719
1.99688
-1.43681
-0.943033
-0.472933
-1.55874
1.55874
0.897023
-0.391456
-0.505567
-0.814181
0.415508
0.398673
0.703149
-0.11344
-0.589709
-0.00128045
-0.0919689
0.0932493
-0.0596611
-0.0637556
0.123417
0.061312
1.44178
0.853804
-0.792492
-0.00278918
-1.45805
-1.20528
1.20249
-0.0392719
-0.00355631
0.0428282
0.12449
1.06974
-0.793255
0.555085
0.23817
-1.66065
-0.0136899
-0.348832
0.927493
-0.578661
0.416754
0.594654
-1.01141
0.0481036
-0.881501
0.833397
0.00925142
0.0667448
-0.0759962
-0.0357033
0.00976947
0.0259338
0.0964378
-1.03218
0.935746
0.80532
0.636461
0.710407
-0.608806
-0.101601
1.24554
-0.142304
-1.10324
-0.16325
-1.09413
1.25738
1.53155
-1.6948
-0.0216354
-0.0140679
0.00504506
-0.044317
-0.934157
-0.726489
-0.0371911
-0.896966
-1.07532
-0.00692074
0.0329224
-0.0260017
-1.30903
-0.14902
-0.44134
-0.867687
0.0106032
-0.803858
-0.803578
-0.679368
-0.608267
-0.325323
0.933589
-1.19824
0.980646
0.000731505
-0.000731505
-1.10215
1.25382
-0.151666
0.251365
0.904883
-1.15625
0.819771
0.06855
-0.888321
0.0163293
0.911163
0.913352
0.897473
-0.480674
0.897428
-0.886484
-0.318796
-1.1313
-0.307422
1.43872
-1.19776
0.259834
0.937924
0.535997
-0.852752
0.316755
1.05607
0.94383
-0.744157
0.753856
-0.00969872
-0.882066
1.05265
0.848548
-0.211476
0.2536
-1.18846
0.934855
-0.979398
-1.02834
-0.283261
0.98641
-0.897309
-1.41188
0.9345
0.308031
-1.24253
-0.00946607
-1.41648
1.14076
-0.205909
1.22249
0.7582
1.07594
0.923991
-0.631508
-1.29425
1.07285
0.17126
-1.10643
-0.880884
-1.85143
0.745005
-1.63695
-0.194358
1.15747
-0.734799
-0.422672
-0.102714
0.802156
-0.699442
-0.952316
0.0846284
0.886784
0.116293
-1.05933
-1.32052
0.419804
-0.912631
0.492827
0.822727
-0.611355
-1.52399
-0.805598
0.332665
0.351873
0.715346
-0.775927
0.0605801
0.80864
-0.695232
0.0484615
-0.0392101
0.0382573
-0.045178
-0.534799
1.02763
-1.23276
0.697964
-0.00117846
0.00117846
0.865488
-0.879074
0.0135857
0.130689
0.000733026
-0.000733015
0.000733027
-1.10019
1.10019
0.861771
0.802272
-0.671582
0.75716
-1.25345
0.49629
-0.720249
0.57011
0.150139
-0.00984212
0.39633
0.457474
-0.566175
-0.237403
-1.55151
1.49397
0.0575397
0.20816
-1.09023
1.53155
0.946393
1.38815
-1.46977
0.0816228
0.001483
-0.001483
0.000749995
-1.00442
0.890975
-0.859337
1.15995
-0.300618
0.817438
1.41841
1.29474
-0.712556
-0.638529
-0.372879
0.656212
2.35309
-0.981271
-0.145589
-0.923321
0.230594
-0.645438
0.414844
0.061489
0.800282
0.28568
-0.875389
1.04267
-0.0620287
-1.18466
0.94466
-0.246696
-0.130661
0.794351
-0.112742
1.23661
-1.35868
1.35895
-0.000269696
-1.04189
-0.504328
-1.53303
-0.767208
0.383732
0.0475505
0.627847
-0.675397
1.20973
-0.153658
-0.148946
1.705
-0.483457
-1.22154
-0.146428
0.757561
-0.405688
-0.627179
-0.225574
-1.40099
1.33786
1.96387
0.00401897
-0.00309977
-0.000919194
0.00146219
-0.00667787
0.00521568
-0.0281672
0.0283175
-0.000150298
0.0412338
-0.0201646
-0.0210691
-0.00468745
-0.00481271
0.00950016
-0.00963908
0.00495163
-0.0571526
0.0123191
0.0448335
-0.0181269
-0.10499
0.123117
-0.00549359
-0.00546578
0.0109594
-0.0645019
0.0488955
0.0156064
-0.112462
0.0732014
0.0392608
0.0562351
-0.00791043
-0.0483247
0.00635064
-0.00543376
-0.00091689
-0.498019
0.323764
0.174254
0.0189551
0.00162113
-0.0205762
0.00696932
-0.00500144
-0.00196788
-0.00127112
0.00127112
0.00393566
-0.00942925
0.00747544
-0.00487611
-0.00259933
0.0212423
-0.0452872
0.0240449
-0.00768102
0.00572491
0.00195611
0.00373542
0.0032339
-0.0532952
0.00418391
0.0491113
0.0454722
-0.0474559
0.00198376
0.0114667
0.0145528
-0.0260194
0.0384182
-0.0269515
-0.0551172
0.0107427
0.0443745
-0.0386442
0.0565397
-0.0178955
0.00145096
-0.00145096
-0.00605908
-0.00686671
0.0129258
-0.0108718
-0.0483061
0.0530681
-0.00476207
-0.00821813
-0.0558463
0.0640644
-0.0368273
0.00823599
0.0285913
0.00353842
0.0160353
-0.0195737
-0.00335329
-0.0170137
0.020367
0.0026285
-0.00262846
0.0138331
-0.0386037
0.0247706
0.00465116
0.00671094
-0.0113621
0.0103311
-0.00180052
-0.0085306
-0.0108067
0.0857229
-0.0749162
0.0654005
-0.0762072
0.051747
0.0222743
-0.0740212
0.0671485
-0.0154015
0.00725809
-0.00298835
-0.00426974
-0.00389685
0.0463686
-0.0424717
0.0615036
0.00920201
0.00975306
0.0189715
0.0060017
-0.0244754
0.0184737
-0.0198518
0.0196487
0.000203099
-0.00782378
-0.0120281
0.0568967
-0.0557138
-0.00118288
-0.0474162
-0.00891224
0.0563284
-0.00708181
0.00326559
0.00381622
0.00913307
-0.00682449
-0.00230858
-0.0111924
0.0359185
-0.0247262
-0.0472585
0.0390403
0.00897667
-0.00926577
0.00387243
-0.00680733
0.0029349
-0.0170699
-0.0380473
-0.000983778
-0.0046171
0.00560087
-0.0217224
0.0138986
0.0120023
0.00331357
-0.0153158
0.00598162
-0.0128483
-0.627026
0.301704
-0.0231266
0.0119342
-0.00278006
-0.00123359
0.00401365
0.0234317
-0.0232009
-0.000230829
0.00852411
0.0149076
-0.0118574
-0.0112691
0.00433463
-0.0161921
0.00728194
-0.0185511
0.00595019
-0.00776662
0.00181643
-0.00225476
-0.00387899
0.00613375
0.000547042
0.00970561
-0.0102527
0.0480551
-0.0373124
0.00941097
-0.052275
0.0277847
0.0244903
-0.0160464
0.0199288
-0.00388249
-0.00326321
0.016189
0.0113009
-0.00906383
-0.0022371
0.0449749
-0.0355639
0.0468051
-0.00183021
-0.0465809
0.0110169
0.0578051
-0.675751
0.617946
0.00528236
0.00385072
-0.0032198
-0.00386201
0.0632247
-0.341142
0.277917
0.172136
-0.502207
0.330071
-0.000424643
-0.00617043
0.00659507
-0.00320651
0.00627202
-0.00306552
0.0264857
-0.0179616
-0.0108656
0.0313236
-0.020458
-0.028334
0.0110991
0.0172349
-0.0183864
0.0287824
-0.010396
-0.0467204
0.0398814
-0.00625418
-0.00461762
-0.017447
0.024729
-0.00615731
0.0076195
-0.00514362
0.00676475
0.0143842
-0.0348226
0.0491974
-0.0143748
-0.055064
0.0202414
-0.00205456
0.0210876
-0.0190331
0.0062044
-0.0192468
0.0130424
-0.0625243
-0.0499379
0.261945
-0.586018
0.324073
0.00143543
0.0523237
-0.0537591
0.0583321
0.0444132
-0.372063
-0.125956
-0.0118704
-0.00870584
0.00760934
0.0113323
-0.0189416
-0.142729
0.202538
-0.0598095
-0.00118304
0.00118304
0.0917606
-0.0344324
-0.0573282
-0.00556191
0.0084895
-0.00292759
-0.0507634
-0.0283139
0.0790773
0.00856135
0.00582289
0.0115623
-0.00662045
-0.00494185
0.00678862
0.0128601
0.012993
0.00260817
0.010252
0.185191
0.118798
-0.303988
0.0197598
0.00613663
-0.0258964
0.0018756
-0.013746
0.464297
0.12474
-0.589037
-0.748245
-0.133255
-0.00430719
-0.0215892
0.0367105
-0.00378813
0.0324033
0.027473
-0.0222818
-0.00519113
0.0128925
-0.0388941
-0.00765551
0.00140134
-0.00857949
0.00092398
-0.386756
0.482706
-0.0959503
-0.506695
0.496997
0.0230332
0.0335065
0.0402681
0.0480483
0.0116534
-0.0597017
-0.0505374
0.0401414
-0.00134
0.0410545
-0.000913146
-0.0072732
0.0495111
-0.0422379
-0.0546894
-0.0058496
0.00421654
0.00163305
-0.0773149
0.0265515
-0.00767041
0.0531426
0.0109806
0.00759134
-0.018572
-0.00892607
-0.0142748
-0.00668348
-0.635369
0.497039
0.13833
-0.0376096
0.0271335
0.0104761
0.000808579
-0.0251415
0.241551
0.236175
-0.477725
0.340521
-0.0989704
0.55293
-0.00805507
-0.00100877
0.00161771
0.0097146
-0.00643736
0.030773
-0.0320535
0.0337289
-0.0286838
-0.0607373
0.328625
-0.155306
-0.173318
0.00494343
0.00504342
-0.00998685
-0.00604584
0.00909357
-0.00304773
-0.0062917
-0.0136871
0.0199788
0.00940595
-0.0156977
-0.0116595
0.00522213
0.00111437
-0.0127739
0.0112636
-0.00604147
0.0292326
0.0224201
-0.0516527
0.0319433
-0.00135878
-0.0305846
-0.0113317
-0.0494055
0.0373133
0.000943988
0.0259815
0.0089627
-0.00139875
-0.00756395
0.0026703
0.0062924
-0.0247738
-0.0212866
0.0460604
0.0142977
0.0188977
-0.0331954
-0.00238891
0.00352818
-0.00673468
-0.00577636
-0.0475189
0.0462579
-0.0250156
0.00576101
-0.00822316
0.00246215
-0.0078424
0.0064253
0.0014171
-0.0261322
0.0120642
-0.00627117
0.0322527
0.0146212
-0.0169057
0.00228455
0.0206028
-0.0190605
0.923944
0.210395
0.591877
-0.440989
-0.186189
-0.01011
-0.00679576
0.00520688
-0.0153169
0.00855283
-0.0153486
-0.0495083
0.0110874
0.0384209
0.000612811
-0.0567712
0.0561584
0.00884911
0.0206592
-0.0295083
-0.0234019
-0.00979355
0.0406097
0.00890139
-0.0107699
-0.036686
0.0298398
0.00756272
-0.00183797
-0.00572475
0.00626947
0.00129325
-0.00727533
0.00543735
0.0199243
-0.0163859
-0.530386
0.590966
-0.512289
0.593694
-0.0814053
-0.00427539
-0.00737513
0.0116505
0.0257496
-0.0854106
0.0324499
-0.0186168
0.00428278
0.0281883
0.0121439
0.00845889
0.0172601
-0.00511623
-0.0146838
0.0231426
0.0785742
-0.0687036
-0.00987067
0.00322775
-0.0196072
0.0163795
0.0207582
-0.00786576
0.023986
0.324996
-0.338011
0.0130141
0.00215628
0.00940602
-0.00808659
-0.0004929
-0.00593032
0.00891312
0.498144
0.946614
-1.44476
-0.000797512
0.000797511
-0.570269
-0.0680907
0.63836
-0.819442
1.31759
-0.00126358
8.51332e-05
0.467617
-0.409812
-1.06528
1.06528
0.130606
0.945337
-0.885517
0.654202
0.231315
-0.407375
-0.478143
1.23891
-0.260451
-0.978461
0.110303
-0.0549619
-0.0553409
-0.528215
-0.107154
-0.103606
-0.424609
-0.836479
0.932917
0.185281
0.312669
-0.49795
0.370472
0.0437916
0.648161
-0.691953
0.482983
-0.439191
0.0645403
-0.0164921
0.602081
-0.621142
0.536664
0.0654176
0.136348
-0.110599
0.48426
-0.235747
-0.248514
0.196852
0.287408
0.00357733
-0.00387274
0.000295411
-1.01618
-0.144888
0.57707
-0.432182
-0.00056931
0.00056931
0.399851
-0.944669
0.544818
-0.554357
0.601908
-0.308777
0.594458
0.0812291
0.0551192
-0.607638
-0.219014
0.826652
-0.0562028
-0.0216269
0.0778296
0.00833746
-0.157057
0.00893368
0.148124
0.64436
-0.700521
0.0928824
-0.327667
-0.372854
-0.691954
0.364287
-0.918456
0.0462346
-0.996753
0.750057
-0.163356
-0.440252
-0.235498
-0.637722
0.412148
-0.13003
0.352676
-0.898407
0.506951
-0.610054
-0.288353
0.000592274
-0.000592274
0.00109103
-0.00380939
0.00271836
1.0355
-0.148719
-0.011458
-0.671076
0.682534
0.944225
-0.617249
-0.326976
0.334171
0.219465
-0.700139
0.661405
-0.0876779
-0.573727
0.880803
0.738499
-0.314637
0.714489
0.0300182
0.0744314
0.0185851
-0.186629
0.227208
-0.0405786
0.219759
0.424601
-1.15273
1.15273
-0.490818
-0.201136
-0.758846
-0.273338
0.839435
-0.332484
0.0805891
0.273534
0.194083
-0.00390124
0.00225795
0.00164329
0.79323
-0.531285
0.302412
-0.0252241
-0.0889796
-0.00852541
0.00259509
0.812443
-0.95733
-0.45538
2.01412
1.03859
-0.541962
0.359879
0.182083
-0.268428
-0.325448
-0.332616
0.658064
0.0364781
0.247246
-1.5007
0.86152
-0.614274
-0.0828386
-0.255312
0.33815
-0.269468
1.20165
-0.0590854
0.0420155
-0.0368112
-0.624865
-0.211614
1.07444
0.248619
-0.57879
0.330171
-0.829651
-0.581032
-0.801797
0.255191
-1.05699
-0.00966151
-0.0130485
0.0541
0.0636878
-0.942762
0.711849
-0.000393277
0.000985551
1.22249
-0.682833
1.90533
0.225368
1.03829
-0.812926
0.934688
-0.925491
-0.0906901
-0.290529
-0.288261
0.64306
-0.0188497
0.00416591
-0.0165651
-0.0275844
0.0110193
0.111017
-0.647681
0.723157
-0.0754757
0.298548
-0.606039
0.985655
-0.379615
-0.0289698
0.783473
1.04723
-1.19366
0.00623694
-0.630464
0.266964
-0.14248
-0.00357309
0.0267157
0.0434239
0.183784
-0.0671748
1.27097
0.211031
0.848294
0.0448111
-0.0537233
-0.0109027
0.0101519
-0.0991316
-0.0752587
-0.142434
-0.0227579
-0.061968
0.419045
-0.49452
0.510176
-0.0911314
0.349376
0.1608
0.422543
-1.34163
0.158273
0.0402666
-0.487399
-0.15804
-0.447132
0.577206
0.0407399
-0.446669
0.28863
-0.0981487
-0.34852
-0.35346
1.13959
0.13012
0.826806
-0.696685
0.566355
-0.000558738
-0.000238774
0.00466836
-0.780605
-0.456841
-0.590097
0.0223775
1.39466
0.711827
-0.757943
-0.00781542
0.00938334
-0.00156791
0.00286971
-0.0106851
0.00139923
0.00469675
-0.00609599
-0.0057365
-0.00715445
0.012891
-0.15119
0.264932
-0.113742
0.00516784
-0.00434092
-0.00082692
0.00747283
-0.00184954
-0.0056233
-0.00623498
0.0038514
0.00238357
-0.00455653
0.00405129
0.000505236
-0.0143657
0.0143329
3.28878e-05
0.0115542
-0.00238423
-0.00917002
0.00270666
0.00884758
-0.0170625
0.00524102
0.0118215
0.00695259
-0.00266829
-0.00428431
0.00277374
0.00417885
-0.0133637
0.00491949
0.00844421
0.00548047
-0.0188442
-0.00351334
-0.0044247
0.00793804
-0.00856699
-0.00161751
0.0101845
0.00199953
0.00804193
-0.0100415
0.00445522
0.00221838
-0.0066736
0.0048228
-0.00799364
0.00317084
0.00859365
-0.00958861
0.000994967
0.00180965
0.006784
-0.00791492
0.00527186
0.00264307
-0.00511462
-0.0028003
0.00245095
-0.00713804
0.00468709
-0.00160745
0.00996037
-0.00835292
-0.00230958
0.00415725
-0.00184767
-0.00327499
0.00198104
0.00129394
-0.00337515
-0.00289624
0.00627138
0.00483963
-0.00821477
-0.00291684
0.0101927
-0.00727587
-0.00752913
0.00226173
0.00526739
-0.00163234
-0.00589678
0.00294614
-0.00702169
0.00407556
0.00200452
0.00434372
-0.00634824
0.00757349
-0.00766965
9.61602e-05
0.00324698
-0.00276311
-0.00048387
0.00367466
0.00320355
-0.00687821
0.00370998
-0.00496245
0.00125247
-0.00649922
0.00298588
0.0075568
0.000523189
-0.00807999
0.00425759
0.00329921
0.00349245
0.00770892
-0.0112014
0.00850505
-0.00995764
0.00145258
0.0108241
-0.00115553
-0.00966859
-0.00920642
0.000439453
0.00876697
-0.00837525
-0.000761655
0.00913691
-0.00443967
0.00689062
0.00802939
-0.0116785
0.00364908
-0.0132486
-0.00111709
-0.00716294
-0.00608571
-0.0247146
0.019891
0.00482361
-0.00710973
-0.33333
0.34044
-0.00894208
0.0045178
0.00442428
-0.00594762
0.00743638
-0.00148876
0.185094
-0.192204
-0.00474891
-0.00539039
0.0101393
-0.00967783
0.00162157
0.00805626
-0.00252531
-0.00715252
0.0200132
-0.00554743
-0.0144658
-0.0077571
0.0277703
0.00800871
-0.00232355
-0.00568516
0.00302469
0.00498401
-0.00714042
0.0112678
-0.00412734
0.00552942
-0.00815553
0.00262611
0.00853866
-0.00576492
-0.00116203
0.0118053
-0.0106433
0.00471175
-0.00614155
0.00142979
0.00969044
-0.0129191
0.00322867
0.00867551
-0.00867551
0.00221149
0.0157204
-0.0179319
-0.0103243
0.00555456
0.00476973
-0.00923386
0.00332622
0.00590764
0.00843777
-0.00843777
0.00812531
-0.00812531
0.000635255
0.00781385
-0.0084491
0.0288151
-0.0122749
-0.0165401
-0.00405136
-0.00615686
0.0102082
0.00628973
-0.00573978
-0.000549887
-0.0222895
0.0060003
0.0162892
0.0107611
-0.0330505
0.00359783
0.00478323
-0.00838106
0.00473118
0.00161946
-0.00260596
-0.00466936
-0.0034759
0.0154782
-0.00419917
-0.0054461
0.00964527
0.00545161
-0.00328088
-0.00217073
-0.00539602
-0.0019543
0.00735032
-0.0115314
0.00464996
0.0068814
-0.0112347
0.00748125
0.00375343
-0.00441891
0.00708899
-0.00267007
0.000282263
-0.00470118
0.0127245
-0.0100891
-0.00263541
0.0101383
0.00147938
-0.0116177
-0.0087246
-0.00115949
0.00988409
-0.00513562
-0.00358899
-0.0016785
-0.00705926
0.00873775
0.00212866
-0.00691272
0.00478406
-0.000436695
0.00605021
-0.00561351
-0.00096737
0.0059428
-0.00497543
-0.00399687
-0.00418468
0.00818155
0.00910129
-0.004644
-0.00445729
-0.0120429
-0.00257862
0.0146215
0.0125742
-0.00669576
-0.00587848
0.00536603
0.00653235
-0.0118984
-0.00698879
0.00706599
-7.72025e-05
-0.00625433
0.00695187
-0.000697545
-0.00761767
0.0118164
-0.00419869
0.00724446
-0.000206292
-0.00703816
0.0081463
0.000220787
-0.00836708
0.0096052
-0.0027887
-0.0068165
0.00169028
-0.00698177
0.00529149
0.00208276
-0.007187
0.00510424
0.00581819
-0.00159371
0.00661337
-0.00501966
-0.00792684
0.000845672
0.00708117
-0.0184879
0.0265375
-0.00804955
0.00179029
-0.00540623
0.00361593
0.00320184
0.00490098
-0.00810282
-0.00693769
-0.00417778
0.0111155
0.00317218
-0.0101099
0.0060942
-0.000388945
-0.00570526
0.00829825
-0.00220405
0.0188036
0.0100115
0.00490932
0.00415299
-0.00906231
0.0107377
-0.0103826
-0.000355085
0.00999132
-0.00999132
0.00592078
0.00354839
-0.00946917
-0.00559646
-0.00199588
0.00759235
0.0145624
0.0245595
-0.0391219
-0.00287105
0.00830129
-0.00543024
0.0014472
0.00642416
-0.00787135
0.0160848
-0.0135888
-0.00249601
-0.0045753
0.00126205
0.00331325
0.00821666
0.00284201
-0.0110587
-0.00300321
0.00655098
-0.00354777
0.00715068
0.00507788
-0.0122286
0.00112465
0.00624279
-0.00736744
-0.00295348
-0.00631646
0.00926994
0.00058671
0.00677762
-0.00736433
-0.0276185
0.0451521
-0.0175336
0.0344921
-0.0621106
-0.00866708
0.00160848
0.0070586
-0.00464594
-0.00402114
-0.00922245
-0.0022133
0.0114357
0.00833599
-0.00468333
-0.00365266
-0.0116733
0.00660895
0.00506431
-0.00720802
0.010784
-0.00357597
0.00158791
-0.00723155
0.00564364
-0.00315525
-0.00298795
0.0061432
-0.00846434
0.00135351
0.00711083
0.00147729
0.00192022
-0.00339751
-0.00309261
-0.00146391
-0.00226109
-0.0061277
0.00838879
0.00974583
-0.00869262
-0.00105322
0.00948383
-0.0111623
0.0110051
-0.00833484
0.000501022
0.00449784
-0.00499886
0.00614391
-0.00564289
-0.0265084
0.0344111
-0.00790276
-0.0206796
-0.00582878
0.00229788
0.00583813
-0.00813601
-0.00911449
0.00920395
-8.94574e-05
-0.00533002
-0.00378447
0.0106746
-0.00727337
-0.00340121
0.00668652
-0.0118011
0.000997283
-0.0082411
0.00724382
-0.00408025
0.0075727
0.00626267
-0.0103429
-0.008359
-0.00477617
0.0131352
-0.00722373
-0.00401744
0.0112412
-0.0125702
0.00551093
-0.00784348
0.00384661
0.00149642
0.00407585
-0.00557227
0.00510137
-0.00565008
0.000548711
0.0030188
0.00208257
-0.0010726
0.00813252
-0.00705992
0.00564493
-0.00727727
0.0274277
-0.000590831
-0.0268369
0.0436265
-0.0161988
-0.0325817
-0.006022
0.0101673
-0.00885499
-0.00131235
0.00721386
0.00789194
-0.00561545
-0.00227649
0.00165697
-0.0100609
0.00444545
0.00150095
-0.0175473
0.00569235
0.00336214
-0.00905449
-0.00795766
0.00940443
-0.00144677
-0.00617174
-0.00154589
0.00771763
0.00335426
0.00683072
-0.010185
0.0067242
-0.00541994
-0.00130426
0.00362366
0.00232202
-0.00594568
-0.0209705
-0.028491
0.0494615
0.00697906
-0.0098501
-0.00556747
0.0112803
-0.00571285
-0.00829644
0.00185916
0.00643728
-0.000350791
-0.00947703
0.00982782
0.0100809
0.00102922
-0.0111101
0.00388888
0.00343501
-0.00732389
0.00789027
-0.0104859
0.00259558
0.0065393
0.000713387
-0.00725269
0.130472
-0.0479643
-0.0825076
9.70336e-05
0.00950816
0.00824333
0.0112266
0.00480985
-0.0160364
-0.00560185
0.0117931
-0.00619122
0.00200607
0.00595363
-0.0079597
-0.0080823
0.00339672
0.00468557
-0.000905483
-0.00608331
-0.00859806
0.0184615
-0.00986342
-0.00338477
-0.00515309
0.00853786
-0.00208049
0.0104954
-0.00841486
0.00476365
0.00800552
-0.0127692
0.00841149
-0.00948945
0.00107796
0.0107377
-0.00803106
0.0101866
-0.00703763
-0.00314901
0.00273024
-0.00970212
0.00697188
-0.0043817
0.00711194
0.000597594
0.00668068
-0.00727827
0.0106154
-0.00585172
0.0052945
0.00441646
-0.00971096
0.00587621
0.00253528
-0.00385067
0.00972688
0.0105408
-0.00675781
0.0097825
0.00733192
-0.00438579
-0.00169594
0.00884662
-0.0107553
0.00783844
-0.0214669
0.00519926
0.0162676
-0.0136609
-0.00780595
-0.0109413
0.00821105
0.00273024
-0.0100619
-0.000879435
0.000208816
0.00532097
-0.00552979
0.00211262
-0.00690607
0.00479345
0.0315089
0.0196566
-0.0511655
-0.0308796
-0.0174451
0.00062929
0.00248965
0.0032515
-0.00574115
0.00470046
0.00046738
-0.00402539
0.0126221
-0.00859671
0.00162266
-0.00740046
0.0057778
-0.0108916
0.00700098
0.00389061
-0.0068753
0.00244398
0.00443132
-0.00587308
0.00729329
-0.00142021
0.00436752
0.0134937
-0.0178612
0.00984798
0.00569895
0.00779474
-0.00610686
0.0108969
-0.00479
-0.00776454
-0.00330197
0.0110665
-0.00432335
-0.00445287
0.00877622
-0.0020844
-0.0064807
0.00856509
0.00193425
-0.00884236
0.00690811
0.00773899
-0.0105277
0.0173555
-0.00562629
-0.0117292
0.0100049
0.00525567
-0.0152605
0.00930028
-0.0363063
0.027006
0.00120525
-0.00974597
0.00854072
-0.00544343
0.0115315
-0.00608807
0.00953896
-0.00112539
-0.00841357
-0.00118766
-0.00840143
0.00958908
0.00923009
-0.00786094
-0.00136915
0.000854834
0.000934175
0.00282883
-0.00376301
0.0140969
-0.00409205
0.00650042
0.00759648
0.0132635
0.00167098
-0.00674273
0.00507175
-0.0063303
0.00709424
-0.000763941
-0.00202741
-0.00430289
-0.000456498
-0.00881911
0.00927561
0.00970503
-0.00444936
-0.00170839
-0.0101889
0.0118973
-0.0103894
0.00868105
-0.00508748
0.00952043
-0.00443295
-0.00677415
-0.00298903
0.00976317
-0.017462
0.0121192
0.0053429
0.0109486
-0.0142944
0.00334575
-0.0392267
-0.0179259
0.0749011
0.0555708
0.0113451
-0.0028175
-0.00852761
0.0187398
-0.0127381
0.00937738
0.00924927
-0.0186267
0.0103556
-0.00805769
0.0021362
0.00821936
-0.00671835
0.00885455
-0.00482957
-0.00713229
0.0119619
-0.00353928
-0.0030624
0.00660168
-0.0373772
0.0207315
0.0166457
0.0321545
-0.0292588
-0.00289574
-0.00182756
-0.00205966
0.00388722
-0.0357568
0.0233748
0.012382
0.0062258
-0.027433
0.0212072
0.000238253
-0.0113006
0.0110623
0.00162955
-0.0121124
0.0104828
-0.0140306
0.00680538
0.00722521
-0.004131
0.00747306
-0.00334206
-0.00546289
0.0108289
0.00711135
-0.00216461
0.00671294
-0.00454833
0.0023845
0.00352532
-0.00590981
-0.00728226
-0.00189942
0.00918168
0.00353631
-0.0064004
0.00286409
-0.00194482
0.0124771
-0.0105322
0.00695437
0.00737147
-0.0143258
-0.00216854
-0.0081231
0.0102916
0.00540461
-0.00966463
0.00426001
0.00537983
-0.00466874
-0.000711086
-0.00192622
-0.00489827
0.0034536
-0.00594248
0.00550578
-0.00805918
0.00760268
-0.00815699
0.000915479
0.00724151
-0.00857673
0.00913749
-0.000560765
-0.00664247
-0.00383714
-0.00873305
-0.0110609
-0.00274067
-0.0074482
-0.0103583
-0.00128186
-0.00616634
0.00536781
-0.00703868
0.00167086
0.00748044
0.000698748
-0.00503967
0.00868294
-0.00892964
0.000246699
0.00204993
0.00663301
-0.0118568
0.00315035
0.00870644
-0.00589455
-0.00550526
0.0113998
-0.021584
0.0123724
0.00921153
-0.0143189
-0.00726505
-0.00411016
0.0106467
-0.00653655
0.00488935
0.00659317
-0.0114825
0.00167176
-0.00862228
0.00695052
0.0276915
0.00822707
0.0339173
0.142679
-0.238629
-0.190651
-0.00192462
-0.00660979
0.0085344
-0.00599737
0.00407275
-0.00596144
0.011821
-0.00585956
-0.00183649
0.00367839
-0.0018419
0.0172257
-0.0139356
-0.00329018
0.000779889
-0.00578133
-0.00804897
-0.0349741
0.0430231
0.0337044
-0.0417534
0.0112331
-0.0203513
0.00911817
0.0051611
0.00581334
-0.0109744
0.0193137
-0.0119576
-0.00735609
-0.0105144
0.0173012
-0.00678679
-0.0122997
0.026815
-0.0145154
0.0160178
0.0322997
-0.0054847
0.00394679
0.00408445
-0.00803123
0.0188422
0.0223915
0.0395265
-0.0212678
-0.0182587
0.00923918
-0.0113204
0.00208121
-0.00868361
0.00970062
-0.00101701
-0.0249135
-0.0025195
-0.0129793
-0.0195588
0.0170393
0.0169405
-0.0138614
-0.00307908
-0.0287425
-0.03529
0.0640326
-0.0638013
0.0376323
0.026169
0.0164434
0.000256526
-0.0166999
-0.00768981
0.00421067
0.00347914
0.00297383
-0.00489924
0.00192541
0.00296998
0.00247458
-0.00544457
0.00594381
0.00559679
-0.00133382
-0.00426297
0.00348862
-0.00445599
-0.00338668
0.00401719
-0.00755918
0.00354199
0.00728278
-0.0100826
0.00885054
0.00123207
-0.00624073
-0.00384188
-0.00256448
-0.00647384
0.00903832
0.000757525
0.00826532
-0.00902285
0.00940722
-0.00864969
-0.00176457
0.0112484
0.00924056
0.000175952
0.00507287
-0.00524882
-0.0044122
0.00458816
0.0120137
0.00269359
-0.0147073
-0.00425658
-0.0142314
-0.0115378
-0.00197318
-0.00750181
0.00947499
0.00573333
-0.00770651
-0.00124914
-0.00625266
0.00141836
-0.0105926
0.00917428
0.00420868
0.00563697
-0.00984565
0.00999232
-0.0045877
-0.00394881
0.0041995
-0.000250692
0.00974085
-0.00425808
-0.00548278
-0.00748814
0.00748814
-0.0158736
-0.0225838
0.0384574
-0.00774004
0.00710124
0.000638799
-0.00413021
-0.00186715
0.0262115
0.0033605
-0.029572
0.0131701
0.0130414
-0.022134
0.0254945
0.00619481
-0.00407716
-0.00211764
-0.00166276
-0.00517186
0.00683462
0.00453205
-0.00766578
-0.00386558
0.0108262
0.0061143
-0.00104907
0.0118753
-0.00916082
0.0152751
0.0107177
0.000584648
-0.0113024
0.00531213
0.00540561
-0.0137619
0.0143465
-0.00538564
0.0070083
0.00548906
0.00534265
-0.0108317
-0.00574562
-0.0038042
0.00949654
-0.00177147
0.00430928
-0.00253781
0.00296221
-0.00673097
0.00376876
0.0160052
0.00140577
-0.017411
0.00366753
-0.0113074
0.00763986
-0.00337563
-0.00327818
0.00665381
-0.00607843
0.00594879
0.000129637
-0.0489396
0.067472
-0.0185324
0.00576771
-0.00981907
0.00918031
-0.00286704
-0.00631326
0.00141577
0.0493248
-0.0414762
-0.00784857
0.00382603
0.00237315
-0.00619918
0.00543298
-0.00160695
0.00646473
-0.00409159
0.00858074
-0.0222417
-0.0449641
0.0261886
0.0187755
0.038079
-0.0151707
-0.0229083
-0.0208246
0.0235894
-0.00276478
0.0201867
-0.000310285
-0.0198764
0.0089267
0.00540615
0.0105563
-0.00715149
0.0125576
-0.0271677
0.0123574
0.0148103
0.00862029
-0.00945628
0.000835994
0.00336757
0.00525272
-0.00641103
-0.003886
0.010297
0.00548623
0.00578941
-0.00964008
-0.00224492
-0.00563078
0.0078757
-0.00948991
0.00480285
0.00468706
-0.0117348
0.00272694
-0.010628
0.0079011
-0.00941025
0.00709504
0.00231521
-0.0066833
0.0040002
-0.0066343
0.00263409
0.00250012
-0.0101893
0.0076892
-0.00351141
0.00351141
-0.001148
0.0077681
-0.0066201
0.00242269
0.00585108
-0.00827377
0.019005
0.0205215
0.00164389
0.0086904
-0.0103343
-0.00334742
0.00334742
0.00397754
0.0034979
-0.00221818
0.00619572
-0.00899347
0.0104118
0.000956549
-0.00619809
0.00524154
0.00618637
-0.00128235
-0.00490402
0.00714291
0.00369235
0.00328274
-0.00697509
-0.00327043
0.00689388
-0.00362346
-0.00566255
0.00582603
-0.000163481
0.00611719
-6.40644e-05
-0.00605312
-0.00645454
-0.00531707
0.0117716
-0.0106323
0.00177853
0.00473581
-0.00651435
-0.00956862
0.0224429
-0.0128743
0.00149217
0.00670686
-0.00819903
0.00795826
-0.00646609
0.00260366
-0.00260366
0.00783555
0.00308131
-0.0109169
0.00360034
0.00423521
-0.00454458
0.00762588
0.0100047
-0.00795472
0.00210737
0.00797353
0.0101368
0.00762273
0.00985855
-0.00631195
-0.0035466
0.000716165
-0.00888864
0.00817247
0.00849389
-0.00777773
-0.00146126
0.00772246
-0.0062612
0.0048897
-0.00635096
0.00492018
0.00109093
-0.00601112
0.0184444
-0.0159473
-0.0024971
-0.00792998
0.0198265
-0.0118965
0.028354
-0.0109198
-0.0174342
0.0264174
0.00193656
0.0213799
-0.00865459
0.00197673
-0.000121966
0.00736438
-0.00724242
0.00653587
-0.00649368
-4.2188e-05
0.0110974
-0.00778382
0.00240834
-0.0107673
0.0135057
0.00248954
-0.00248954
0.00474087
-0.0056198
0.00087893
-0.00678368
0.00891234
0.00835872
-0.010884
0.0227876
-0.00822513
0.0067844
-0.0242186
-0.0324437
0.00922
-0.0026169
-0.00660311
0.00250166
-0.00919889
-0.000251132
0.00945002
-0.00973971
0.00998027
-0.000240562
0.0316237
0.00188276
-0.00528919
0.00528919
-0.00580544
0.0060877
-0.00657992
0.00498621
-0.0332554
-0.00225452
0.0355099
-0.0128857
-0.0203697
0.0340133
-0.0362678
0.00589963
-0.00589962
-0.0184111
-0.00811708
0.0265282
-0.0253155
0.0166026
0.00871285
0.00175321
-0.00175321
0.00345401
-0.003454
0.00575901
-0.000919376
0.00339772
0.00272246
-0.00612018
0.00489414
0.00451275
0.00554844
0.00204733
-0.00759577
0.00161209
0.00576691
-0.007379
0.00122981
0.0069289
-0.00815872
-0.0388744
0.0204632
0.00378224
0.00345562
-0.00723785
0.00611229
-0.00727088
0.00115859
-0.00399119
0.00657456
-0.00258337
0.0021211
0.00710679
-0.00607078
-0.00103601
0.00329851
0.00380828
-0.00680557
0.000195786
-0.00239886
0.00239887
-0.0230081
0.0411527
-0.0181446
-0.0350751
0.011236
0.023839
-0.0312999
-0.00377516
0.0380387
-0.0268027
0.0064861
-0.00183614
0.00109008
-0.00757435
-0.00420939
0.0117837
-0.0115997
0.00868457
-0.012894
0.0209586
-0.0149714
-0.00598721
-0.000763777
-0.0322687
0.0172973
0.00751423
-0.00389057
-0.00256979
0.00256979
0.00829657
-0.0154481
-0.00995522
-0.00263017
0.0125854
0.0263756
-0.0330721
0.00669647
-0.0105986
0.0369742
-0.00258665
0.00877759
-0.00619094
-0.0100458
0.00745919
-0.00368906
0.00721994
-0.00353088
0.00369887
-0.00600185
0.00230298
-0.0122399
0.0124782
-0.00760176
0.00153098
-0.00271207
-0.00693336
0.00126005
0.00794589
-0.00920594
0.00749783
-0.00623778
-0.0161338
0.01789
-0.00175628
0.00679669
-0.015962
0.00916528
0.00725349
-0.0101205
-0.00233946
0.00233947
0.0012323
-0.0012323
0.0167964
-0.0139917
-0.00280473
0.00755886
-0.00577009
-0.00178878
0.00831749
-0.000758627
-0.00789955
0.00174269
-0.00372174
-0.00417781
-0.00731663
0.003941
-0.00421285
-0.00752198
-0.00954287
-6.23128e-05
-0.00458979
0.0046521
-0.037352
0.0162847
0.0210673
-0.0273026
-0.00845417
0.000722496
-0.00659558
0.00663556
-0.000518368
-0.00354467
-0.00550111
0.00904579
0.00414748
0.0101934
-0.0143409
0.00748922
0.00319803
-0.0106872
0.00385521
-0.00615917
0.00230396
-0.000779617
0.00463482
-0.00297471
0.00762587
0.00735641
-0.000441044
0.0152367
-0.0147957
-0.0165748
-0.00196033
0.00196033
0.000244005
-0.00220433
-0.0137463
0.00812
-0.00545765
0.00660046
-0.00114281
-0.000242267
-0.00521538
0.00187013
-0.00187013
0.000133392
-0.00560418
0.00547079
-0.00442492
0.00691457
0.00696484
-0.00741484
0.000449998
-0.0283651
0.0318933
-0.00352827