/*--------------------------------*- C++ -*----------------------------------*\
  =========                 |
  \\      /  F ield         | OpenFOAM: The Open Source CFD Toolbox
   \\    /   O peration     | Website:  https://openfoam.org
    \\  /    A nd           | Version:  6
     \\/     M anipulation  |
\*---------------------------------------------------------------------------*/
FoamFile
{
    version     2.0;
    format      ascii;
    class       volVectorField;
    location    "1748";
    object      U;
}
// * * * * * * * * * * * * * * * * * * * * * * * * * * * * * * * * * * * * * //

dimensions      [0 1 -1 0 0 0 0];

internalField   nonuniform List<vector> 
29874
(
(7.52384 0.0626493 1.07856e-16)
(5.38696 0.0281767 -9.97409e-17)
(5.42402 -0.121062 2.01889e-16)
(7.10982 -0.0800731 -1.20331e-16)
(7.80351 -0.118769 0)
(7.42348 0.00414297 -9.66573e-17)
(4.77367 0.094496 6.67161e-18)
(7.1241 0.0172226 1.93418e-18)
(7.44885 -0.00413648 -1.39449e-17)
(7.19173 0.211795 -1.61592e-17)
(7.20003 -0.115779 0)
(7.23014 0.102913 -3.539e-17)
(4.44441 -0.0538085 9.17701e-17)
(8.26517 0.0483825 0)
(6.71907 0.203225 1.0615e-16)
(6.6014 0.137174 0)
(4.25728 -0.0199491 0)
(7.79699 0.211894 -1.38724e-16)
(4.96172 -0.0407686 -1.45348e-16)
(7.99515 -0.0695117 -2.86353e-18)
(7.11891 -0.0228863 3.42911e-17)
(7.07113 -0.0257065 1.12537e-17)
(7.03499 0.0593117 -9.11507e-17)
(7.52442 0.0363685 0)
(5.75739 0.294214 0)
(7.76465 -0.00899303 -2.58987e-17)
(7.96447 -0.043147 -8.89334e-17)
(5.06745 0.120265 1.1994e-16)
(5.32105 0.122982 2.0911e-17)
(4.93994 -0.118095 4.70791e-17)
(8.06221 -0.0953912 -2.7731e-17)
(5.33758 -0.098468 -2.68826e-16)
(7.84812 0.0548944 0)
(5.18248 -0.0332015 -8.34886e-17)
(7.39513 0.131972 3.32603e-17)
(5.48297 0.109519 -1.38992e-17)
(7.04327 -0.00294818 0)
(7.28782 0.313982 -8.56174e-18)
(7.50932 -0.100859 -6.34167e-17)
(5.34792 0.0242158 0)
(7.0004 0.0103857 -3.82686e-17)
(7.02987 -0.019497 7.81278e-17)
(7.30972 0.00793499 0)
(5.62931 0.0457142 -7.51481e-18)
(8.02181 -0.13523 8.15936e-17)
(7.43397 0.0501774 0)
(4.74361 -0.149883 0)
(8.47942 0.0407731 0)
(7.25155 -0.0599541 4.23684e-18)
(7.16604 -0.113175 -6.01384e-17)
(4.48392 0.140884 -9.21884e-17)
(7.87385 -0.0990935 0)
(6.76991 -0.00071516 -4.45907e-17)
(6.59872 0.070078 3.97811e-17)
(7.66759 0.157664 -1.84247e-17)
(7.7121 -0.00896348 5.20563e-17)
(4.68734 -0.0786123 0)
(8.14669 0.0318783 0)
(7.12334 -0.0634512 0)
(7.04431 0.0837691 -8.67068e-18)
(7.27215 -0.129376 9.96184e-19)
(7.23713 0.0153617 -7.1729e-17)
(7.22255 -0.232985 -1.00885e-18)
(7.48574 0.014673 0)
(5.81297 0.0536905 -4.71569e-17)
(7.4673 0.0319015 -3.60925e-17)
(7.748 0.144283 -1.89296e-20)
(7.60253 0.00940996 7.31609e-17)
(7.63931 -0.0916188 3.946e-17)
(7.48907 -0.0797365 3.86269e-17)
(8.25145 -0.138847 4.03812e-17)
(7.61456 0.0175569 5.29288e-17)
(7.53144 0.10403 -3.20818e-16)
(5.65334 -0.133028 3.97757e-16)
(7.03187 -0.128953 3.90679e-17)
(8.06426 0.121997 0)
(7.80188 -0.108559 -1.66843e-17)
(8.0019 -0.09825 1.68182e-17)
(4.99741 0.112487 6.43035e-16)
(7.35584 0.0999605 -1.79126e-16)
(5.38118 -0.0941163 -9.4404e-17)
(7.11955 -0.151415 9.75393e-19)
(6.96889 0.154108 0)
(7.4341 0.192107 -3.77668e-17)
(4.65081 -0.364038 0)
(5.10714 -0.218081 -3.93511e-17)
(7.3628 0.00834684 3.43029e-19)
(7.0353 0.0405853 1.68135e-17)
(7.93786 -0.106303 9.52963e-17)
(7.54348 -0.0652334 5.05907e-17)
(3.85834 -0.698465 -4.3253e-18)
(7.00558 0.077445 4.53863e-17)
(6.95766 0.130884 -2.61625e-17)
(7.45757 -0.0330467 2.82719e-17)
(7.19377 -0.123373 0)
(6.68993 0.098924 0)
(7.09179 -0.223739 -2.01601e-17)
(4.66989 -0.00393709 8.64082e-18)
(3.53421 -0.56622 -2.12194e-17)
(6.53529 -0.0648216 1.2071e-17)
(7.52389 0.0489117 -3.8045e-18)
(7.01991 0.0931391 1.11597e-17)
(6.99089 0.0897445 0)
(7.35652 0.0846437 -8.02713e-17)
(7.10497 0.092415 -6.03262e-17)
(3.57463 -0.396175 3.88735e-17)
(3.97936 -0.51262 -2.94948e-17)
(7.49736 0.00778768 6.04826e-18)
(7.58566 0.014262 0)
(7.24265 -0.12897 -9.12695e-18)
(3.92462 0.131651 -2.66179e-17)
(7.94031 -0.171289 8.37833e-17)
(7.99918 -0.17279 -8.97555e-17)
(6.96916 0.11932 0)
(6.97516 0.132076 0)
(6.98451 0.102004 -5.18532e-17)
(6.87578 -0.29722 8.27618e-18)
(7.22994 -0.178189 1.02537e-16)
(0.447648 0.0843115 -6.38225e-17)
(7.04313 0.0845309 2.37324e-17)
(6.97588 0.129734 4.00126e-17)
(8.23352 -0.198299 -1.23189e-16)
(7.19122 -0.102371 -9.83314e-20)
(7.14901 -0.137987 3.75913e-18)
(7.24198 -0.131348 7.60817e-18)
(6.65463 0.159175 -4.33682e-18)
(7.46797 -0.141291 0)
(7.20685 0.230827 -1.91274e-17)
(7.02363 0.10891 -4.66754e-17)
(6.56359 -0.264294 4.0833e-17)
(6.99954 0.0069348 0)
(6.75231 -0.254483 2.92448e-17)
(7.13706 -0.11696 -5.13037e-17)
(7.07985 0.0942683 9.32738e-17)
(7.28972 0.116784 3.76786e-17)
(7.1111 0.056033 -3.21922e-17)
(7.254 0.117936 7.27841e-17)
(7.0346 0.00783736 -9.53257e-18)
(7.34934 0.269815 7.98751e-19)
(7.09805 -0.16082 5.98297e-17)
(7.70106 -0.263523 -7.08263e-18)
(7.75937 -0.0388608 0)
(7.01278 -0.194715 -1.61418e-17)
(7.47429 0.265782 -2.26357e-17)
(7.21171 -0.0573371 -4.98564e-17)
(7.14788 0.187867 -8.1104e-18)
(7.36143 0.0328315 3.27776e-17)
(7.31733 0.0707487 5.56678e-17)
(7.00345 0.00647845 -3.02025e-18)
(6.62551 0.124004 -5.75178e-18)
(7.78971 0.0914671 3.32483e-17)
(7.86791 -0.112748 9.94716e-18)
(6.47664 0.196925 0)
(6.95155 -0.0973235 1.2914e-17)
(7.3741 -0.0749905 2.42955e-17)
(7.02469 0.0595535 3.61325e-17)
(7.07301 -0.00986184 2.21689e-17)
(7.69291 -0.186168 -3.65755e-17)
(7.92651 -0.0953717 3.81133e-18)
(7.94748 -0.13142 0)
(7.70024 -0.137235 -6.94878e-17)
(7.22708 0.103196 1.88524e-16)
(6.89855 0.152138 -6.3353e-16)
(7.65173 -0.169658 0)
(7.75946 -0.176672 0)
(7.74544 -0.156326 7.07122e-18)
(7.6848 -0.166722 0)
(7.17545 -0.0667031 0)
(7.06546 -0.0125972 -5.72198e-17)
(7.49821 -0.180414 2.08951e-17)
(7.75408 -0.109012 0)
(7.67308 -0.156808 0)
(7.5909 -0.118702 -1.17269e-17)
(4.43365 -0.0184655 -3.61872e-17)
(4.11846 0.102926 7.13556e-18)
(7.49234 -0.138675 0)
(7.30183 -0.163683 1.76098e-17)
(1.27793 -0.108859 -4.27974e-17)
(6.94052 0.0281102 -1.5475e-16)
(6.78988 -0.0175784 7.90982e-17)
(1.26431 -0.0647948 0)
(1.24559 0.02237 0)
(4.99932 -0.0788532 -2.34329e-17)
(6.92415 0.117531 -3.23853e-17)
(6.58432 -0.0293989 1.49228e-18)
(8.23522 0.0573931 -3.67525e-17)
(7.02965 0.129248 -1.01089e-17)
(7.01939 0.111379 -8.67072e-19)
(7.03393 0.0793309 6.05891e-18)
(6.98373 0.124118 1.94247e-17)
(6.98614 0.0980177 1.42893e-17)
(8.32673 -0.1251 1.03883e-16)
(6.89723 -0.119037 7.72237e-17)
(6.71605 -0.203394 -4.08848e-17)
(5.19458 0.027579 -4.43639e-17)
(7.07678 0.0693852 2.19565e-17)
(7.03782 0.0956214 4.64451e-17)
(7.61347 0.156941 0)
(1.33622 0.0200459 6.4154e-17)
(1.71089 0.0134267 0)
(7.73674 0.192218 7.43938e-18)
(8.08074 -0.0715436 0)
(7.63194 0.447704 -1.33508e-17)
(7.59822 0.279263 -1.40117e-16)
(6.9738 0.0899518 0)
(6.79426 0.113696 4.67342e-17)
(6.8973 0.0911306 6.89864e-17)
(7.36781 0.0840145 3.32745e-16)
(7.08842 -0.174056 -5.73444e-17)
(6.88192 -0.239723 -3.12773e-17)
(7.11991 -0.010694 4.18212e-17)
(7.30935 0.0282546 -2.31172e-17)
(6.37568 -0.126136 -6.36382e-17)
(6.80729 0.0918139 -1.3868e-16)
(7.27177 0.212286 3.06004e-17)
(7.17049 -0.20827 -5.1483e-17)
(7.25555 -0.183449 -5.05292e-18)
(7.19447 -0.156556 -2.64332e-17)
(7.27236 -0.13326 1.66905e-17)
(7.44959 -0.139846 0)
(7.66002 -0.00152453 -9.97308e-17)
(8.28919 -0.0669091 -3.13513e-17)
(6.89761 0.0112038 4.80736e-17)
(7.42571 -0.0557563 -3.73159e-18)
(7.00126 0.0531183 -5.91076e-17)
(7.31802 0.0528076 0)
(7.60247 -0.0162716 7.46877e-18)
(7.45398 -0.123077 -7.41208e-18)
(7.79598 0.163838 -2.86551e-17)
(6.99033 0.228756 -1.76673e-17)
(7.00368 0.0227803 0)
(7.00156 0.0441596 4.82176e-17)
(7.38183 -0.0831298 -1.15259e-17)
(7.25811 -0.0583275 1.07154e-17)
(6.8012 -0.0845726 4.14932e-17)
(6.92889 -0.0770602 0)
(6.50393 -0.229416 0)
(7.75626 -0.112351 -2.08149e-17)
(7.5866 -0.130057 8.20479e-18)
(7.81555 0.0777485 -7.6198e-18)
(8.0124 -0.07798 5.8495e-17)
(2.51127 1.29368 -7.00841e-18)
(2.99621 -0.478744 7.41749e-18)
(6.1238 2.42082 -2.30403e-18)
(6.24317 2.46182 0)
(3.02567 -1.38587 1.31874e-17)
(2.94654 -1.36593 1.38015e-17)
(7.57695 -3.86501 4.96316e-18)
(6.63073 1.12666 1.49782e-17)
(7.6831 -1.38902 2.40255e-19)
(4.2924 -0.742002 -2.12572e-17)
(6.62035 1.63169 9.90867e-19)
(5.00342 -1.37391 -1.65757e-17)
(4.01175 -0.732698 0)
(7.0872 -0.310044 -7.34503e-18)
(3.25869 -0.464849 -2.2285e-17)
(4.12868 -1.39824 -1.48475e-18)
(0.635899 0.309287 6.89182e-17)
(7.73564 -1.34417 2.93942e-19)
(4.21184 0.166449 2.56948e-18)
(6.22513 -3.55839 1.28314e-18)
(4.0216 -0.427585 -3.74405e-19)
(4.13049 -1.47747 0)
(6.66034 -3.24488 1.63476e-18)
(6.88278 -3.39809 6.606e-18)
(6.70642 -3.9015 2.65929e-18)
(6.79005 -3.88784 -1.5855e-18)
(6.2879 2.19395 -1.75909e-18)
(6.23403 2.29771 1.91575e-18)
(0.717565 -0.373657 0)
(3.17686 -1.35694 2.71128e-18)
(3.08804 -1.30249 -1.90464e-17)
(4.12084 -0.75289 2.08358e-17)
(6.12575 -1.70264 -1.10547e-17)
(6.63326 2.71271 2.91654e-19)
(6.11326 2.74065 1.02837e-19)
(6.06242 -4.07427 1.80298e-18)
(1.54472 0.596961 -1.74339e-17)
(6.08134 2.36682 -3.12207e-18)
(6.79158 -1.92008 0)
(6.90992 -1.82524 2.33512e-20)
(6.87095 1.74178 -3.72486e-19)
(6.79623 1.7428 0)
(6.4801 1.96073 -2.31193e-18)
(6.52833 2.00235 0)
(6.53709 1.04205 0)
(6.70148 1.83276 -1.17093e-18)
(6.76082 1.8285 1.01437e-18)
(3.27558 -0.594957 3.08878e-17)
(3.38667 -0.641017 3.02556e-17)
(5.93448 2.67704 -2.18294e-18)
(6.26072 2.46449 0)
(6.23829 2.4718 0)
(7.5251 -3.2849 4.74388e-18)
(7.40842 -3.59696 7.83792e-18)
(4.25472 -0.61326 0)
(4.26164 -0.315891 0)
(6.13178 -3.85346 1.85337e-18)
(4.80648 -1.14723 4.16639e-17)
(4.25864 -0.984712 -1.18097e-17)
(3.65577 -0.706516 -3.78501e-17)
(3.71648 -2.1846 3.25875e-18)
(6.31054 2.12131 0)
(3.65451 -1.58187 -3.84432e-18)
(6.21962 2.45781 3.69257e-19)
(6.24955 2.34395 -4.63887e-19)
(3.23264 -1.26309 9.74533e-18)
(6.79174 -0.386385 0)
(6.05209 -3.88131 0)
(2.8759 0.0253464 0)
(6.73747 -4.27936 1.9035e-18)
(6.7434 -4.23905 -9.20288e-19)
(6.075 -3.94019 0)
(6.1535 -3.96059 -3.63874e-18)
(6.02504 -3.98897 1.80586e-18)
(4.13215 -0.404751 1.25797e-18)
(4.16334 -0.549728 2.47284e-21)
(6.92608 -3.06971 -2.61602e-19)
(6.22281 2.19645 3.05082e-19)
(6.1954 2.26077 4.6665e-18)
(6.84772 -3.60058 3.39575e-18)
(6.97615 -4.37895 0)
(3.16359 -1.50182 -7.39792e-18)
(3.10454 -0.313457 0)
(6.14696 2.26107 -5.00663e-18)
(6.13331 2.29793 0)
(6.11498 2.20496 0)
(7.06996 0.248702 -1.94158e-17)
(4.24933 -0.394335 -3.39937e-18)
(4.25705 -0.539185 -3.77078e-18)
(6.59771 0.499937 -7.57389e-17)
(6.7048 0.383502 -4.77919e-17)
(4.118 0.880942 2.08278e-18)
(4.08115 1.02575 -2.5979e-18)
(6.80006 -4.2214 0)
(6.38357 -3.83918 1.64623e-19)
(6.27857 2.38924 0)
(6.34191 2.35265 0)
(6.31405 2.33059 0)
(6.31255 2.40346 0)
(3.07181 -1.19136 -5.45157e-18)
(5.93641 -3.98124 0)
(3.0584 -0.490141 9.96132e-18)
(3.14372 -0.48592 -6.37853e-18)
(3.11063 -0.410187 -1.76673e-17)
(3.09642 -0.532062 -5.19341e-18)
(6.42095 2.2611 4.9859e-19)
(6.3788 2.23277 3.65752e-18)
(6.87717 -4.30107 1.98776e-18)
(6.24023 2.41725 3.38701e-19)
(6.64815 1.52367 9.00699e-18)
(7.46188 -0.441223 0)
(7.00156 -2.62653 1.99742e-17)
(7.39587 -3.06211 4.31643e-18)
(6.47639 -2.22504 0)
(7.0584 -0.342586 3.04342e-18)
(3.27961 -0.340712 0)
(3.2976 -0.1159 0)
(5.75154 -0.772308 0)
(0.648143 -0.201659 6.30803e-17)
(6.9703 -2.8825 -6.49016e-19)
(2.84167 -1.89549 -1.12194e-18)
(7.3347 -2.89147 0)
(3.08479 -0.639505 4.59307e-18)
(3.07759 -0.838368 9.8888e-18)
(6.26942 2.44557 -7.14593e-20)
(6.25943 2.42801 -1.25379e-20)
(6.29638 2.43614 1.02462e-19)
(6.19052 0.329578 -7.76545e-17)
(3.48924 -0.163115 3.02614e-17)
(3.36037 -0.319934 2.17859e-18)
(3.50655 -0.323294 -3.35553e-17)
(3.37629 -0.154738 -2.29063e-18)
(6.99009 0.170201 1.93841e-17)
(7.04515 -0.248317 -3.09562e-18)
(3.52647 -0.093761 -2.44014e-17)
(3.80866 0.0533892 -5.8112e-18)
(3.7769 -0.117202 1.07032e-18)
(3.67467 0.622196 0)
(3.87916 0.366788 2.59401e-17)
(2.99903 -1.17909 0)
(2.9833 -1.08365 6.8839e-21)
(6.60687 -0.561304 7.6349e-18)
(6.658 -0.354868 3.21679e-18)
(6.2238 2.33417 -4.96681e-19)
(6.25161 2.37886 5.2276e-19)
(3.46589 -0.270494 2.03108e-17)
(6.38565 2.36026 0)
(6.41773 2.31724 0)
(6.40018 2.43189 0)
(7.12783 -3.63935 7.16479e-18)
(7.314 -3.68463 0)
(2.90957 -0.459112 -6.35239e-18)
(7.25124 -3.07427 -6.84826e-18)
(6.9919 -3.27527 7.22759e-18)
(6.82043 -4.32851 0)
(6.77127 -4.28613 -2.00607e-18)
(6.83517 -4.29117 8.7786e-20)
(6.76303 -4.3299 0)
(6.72356 0.280763 0)
(6.75487 -3.75936 8.72728e-20)
(6.81256 -3.83808 1.63886e-18)
(6.85227 -3.69582 -1.61614e-18)
(6.43379 -0.416435 -4.02472e-17)
(6.4523 -0.534749 5.46852e-17)
(6.51915 -0.359167 -6.13151e-17)
(3.13484 -0.264169 5.51067e-18)
(3.22459 -0.16735 -5.68158e-18)
(3.15491 -0.164237 -2.87199e-18)
(3.21517 -0.271079 2.75783e-18)
(4.39811 -0.411633 -3.12246e-17)
(4.17412 -0.525993 1.08916e-18)
(4.29952 -0.542998 0)
(4.33322 -0.313714 1.89591e-17)
(6.84109 0.564452 1.79603e-17)
(3.29859 -3.09127 4.11832e-18)
(3.49863 -2.91119 1.81135e-18)
(3.37872 -1.82214 6.23246e-20)
(3.22873 -1.85924 -5.18636e-18)
(3.1212 -0.139638 -5.06388e-18)
(3.1267 -0.0218425 5.42675e-18)
(3.02918 -0.160718 0)
(4.14273 0.489401 0)
(3.87767 0.781821 9.07603e-18)
(4.33979 -0.233661 0)
(4.13264 -0.0237542 0)
(4.0592 -0.21462 0)
(4.35527 -0.102718 0)
(6.89788 -1.64503 6.34401e-20)
(6.8971 -1.71077 0)
(6.53542 -3.68539 1.51087e-18)
(6.56235 -3.79437 0)
(6.64839 -3.72036 2.35851e-19)
(6.48392 -3.70722 -4.63843e-18)
(4.04429 1.09881 0)
(6.59942 -3.33126 -6.24172e-18)
(6.36567 -3.48836 0)
(4.0753 1.57983 -1.18303e-18)
(4.13511 1.12713 0)
(3.72764 -0.381554 -2.41962e-17)
(3.96644 -0.229888 0)
(3.81275 -0.187002 0)
(3.94406 -0.380497 2.9814e-17)
(3.41935 -1.14404 4.17426e-17)
(3.36073 -1.26988 -1.49745e-17)
(6.9283 0.138267 -4.773e-18)
(6.57452 -0.0619581 9.19594e-17)
(6.5311 -0.168906 0)
(6.48817 -0.125233 9.163e-17)
(6.61229 -0.146959 0)
(3.36103 -1.03877 -1.80945e-17)
(3.43778 -0.901052 0)
(3.23909 -0.999348 0)
(4.47213 -1.09236 -2.51136e-17)
(4.6365 -0.722396 -1.12924e-17)
(4.4535 -0.822097 1.16708e-17)
(6.53344 -3.92146 1.28134e-18)
(6.56233 -3.84404 2.10317e-18)
(6.62414 -3.872 -1.36427e-18)
(6.49759 -3.85502 -2.91439e-18)
(7.07776 -3.57428 -9.11453e-18)
(6.95393 -3.44792 -5.87809e-18)
(7.11787 -3.48005 2.10845e-18)
(6.92575 -3.55718 -4.16738e-18)
(4.11427 -1.04365 0)
(4.1103 -1.13429 0)
(4.04986 -1.03588 -3.72875e-19)
(6.10731 2.79967 4.20059e-20)
(7.34388 -0.180961 -2.90814e-17)
(7.16295 -0.211335 3.37624e-18)
(7.23721 -0.200851 1.81049e-17)
(7.27034 -0.183077 -1.23234e-17)
(6.36936 2.944 -6.83928e-20)
(5.25197 -0.144223 5.14449e-17)
(6.1115 2.36897 -1.63408e-18)
(6.12536 2.39574 -7.61327e-19)
(6.14422 2.33468 1.35717e-18)
(3.42199 -1.39633 0)
(3.34236 -1.54795 0)
(3.60818 -1.41522 2.60424e-17)
(6.11112 -1.3537 6.38352e-18)
(3.55178 0.377325 0)
(3.72476 0.378688 2.54275e-19)
(3.65389 0.298454 0)
(3.62867 0.509855 -1.07982e-17)
(6.93734 0.430736 2.27647e-17)
(3.08731 -0.92217 2.87716e-18)
(2.99338 -1.03252 -6.48713e-18)
(2.99811 -0.961551 3.42366e-18)
(3.0876 -1.01719 0)
(8.02719 0.196368 -6.55805e-17)
(0.579006 -0.0937555 1.22365e-16)
(7.74929 -0.343625 4.47172e-17)
(8.06973 -0.0250952 0)
(1.80285 -0.157312 -3.39032e-17)
(7.08532 0.287824 -1.74522e-17)
(4.66517 0.0628331 -8.15206e-17)
(6.99738 0.0212305 3.50276e-17)
(7.0074 0.107882 -2.27452e-17)
(7.00661 0.0824394 -4.55738e-17)
(7.95884 -0.225953 0)
(3.36463 -0.442419 -3.32426e-18)
(6.75744 0.282967 0)
(6.80178 0.236473 1.80922e-17)
(6.07836 -0.0888986 0)
(6.31281 0.192343 -9.05266e-17)
(6.20472 0.23804 4.80745e-17)
(6.51175 0.0753346 2.55128e-17)
(6.44058 0.118447 0)
(2.90236 -0.27342 7.07974e-18)
(6.91814 0.176362 -4.26391e-17)
(6.89602 0.209923 -4.70818e-17)
(5.40697 -0.168004 -3.18383e-17)
(6.95765 0.295686 1.75357e-17)
(6.94686 0.347974 1.18228e-17)
(2.88549 0.5194 2.76247e-17)
(7.00936 0.0754351 4.02956e-17)
(7.69295 0.332426 -1.92176e-17)
(0.427531 0.121461 -7.91589e-17)
(7.00032 0.14357 -1.40338e-17)
(6.97001 0.229465 2.83818e-17)
(7.19068 0.280699 0)
(5.44066 -0.328404 -6.32637e-17)
(7.3948 -0.205607 9.11186e-17)
(3.06049 -0.302882 3.59038e-18)
(3.25815 -0.2148 -1.91955e-17)
(6.88978 0.877157 1.21219e-17)
(7.01207 0.118456 3.00565e-17)
(7.31901 -0.251529 -2.41497e-17)
(7.3753 -0.268171 -8.44303e-17)
(7.32503 -0.32309 2.76994e-17)
(7.61267 -0.195912 4.092e-17)
(6.57295 -0.396916 7.08334e-18)
(6.55224 -0.498008 -9.76071e-18)
(7.11019 -0.179012 8.11357e-19)
(7.09448 -0.217619 2.37105e-17)
(7.05499 0.207027 -1.04317e-17)
(6.36537 -0.287523 -6.91509e-17)
(6.70966 -0.409844 0)
(6.68214 -0.524615 0)
(6.98851 -0.155668 -4.68387e-18)
(6.88657 -0.162989 0)
(0.405679 0.117782 0)
(3.03755 0.473517 1.61488e-17)
(7.55137 -0.147375 3.1654e-17)
(7.63506 -0.121403 5.68436e-18)
(7.25326 0.395997 1.84966e-19)
(7.07246 -0.220642 0)
(7.13087 -0.189508 0)
(6.69829 0.226922 -1.71189e-17)
(7.57491 -0.382031 0)
(7.00244 0.0689641 -2.17036e-17)
(6.99692 0.0859068 7.80482e-17)
(7.01222 0.176293 -3.50465e-18)
(7.38978 -2.87994 1.51555e-17)
(6.8674 -2.3749 -1.17217e-17)
(6.88006 -2.26688 1.08718e-17)
(5.68186 0.0866335 3.848e-17)
(7.00977 0.151716 0)
(4.93668 -0.112786 -2.31795e-16)
(7.36395 -0.351537 0)
(6.70085 -0.0721554 -2.41996e-17)
(6.46957 -0.0789089 1.14134e-17)
(6.3482 -0.0819461 1.12956e-17)
(7.10968 0.328944 -2.81383e-17)
(3.079 -0.540884 0)
(7.46433 -0.375195 8.14897e-18)
(7.41884 -0.34177 -3.85905e-17)
(4.76739 -0.140953 0)
(4.9594 -0.130459 0)
(2.94744 -0.937549 9.08417e-20)
(7.80641 0.22816 -9.66348e-18)
(7.22267 0.217337 -4.05328e-17)
(7.2939 -0.0339605 0)
(8.36157 -0.0587485 -1.06575e-16)
(7.16058 0.364874 0)
(7.12666 0.323716 1.34681e-17)
(6.94448 0.191116 -3.17064e-17)
(4.75442 -0.507367 0)
(8.15678 0.105353 -4.05019e-17)
(7.95066 0.184133 -8.47433e-17)
(5.97256 0.027473 4.80825e-17)
(5.82065 0.0985844 -5.63041e-17)
(7.34067 0.0934907 -1.41944e-17)
(6.37287 2.10245 1.48397e-18)
(6.40677 2.01044 -1.62039e-18)
(5.99281 -0.135895 -1.96082e-17)
(7.00074 0.0207917 0)
(6.97579 -0.315523 -2.40574e-18)
(7.05349 -0.245625 -2.44352e-18)
(6.99763 -0.273173 0)
(8.14344 -0.0286856 1.27931e-17)
(8.07279 0.0333506 -2.55694e-17)
(3.94835 0.493221 0)
(3.83443 0.654386 1.98441e-17)
(6.41109 2.14458 2.58313e-18)
(6.494 2.09902 -2.38577e-18)
(6.78661 0.0444681 1.44902e-16)
(6.57092 0.047297 5.33908e-17)
(0.742715 0.161824 1.03493e-17)
(5.15258 -0.0494475 5.58127e-17)
(7.07519 -0.00712283 -9.71999e-17)
(6.94443 0.135385 -3.90841e-17)
(6.87798 0.155131 6.37924e-17)
(6.82923 0.189166 -5.61953e-17)
(7.00955 0.0545878 0)
(7.00207 0.0432924 -1.08945e-17)
(6.92126 -0.349288 2.4147e-18)
(6.92755 -0.295593 -8.30068e-18)
(6.9994 -0.256129 0)
(3.64163 -1.3264 -2.85034e-17)
(3.54513 -1.15758 -8.05693e-18)
(3.63591 -1.03095 0)
(6.88492 0.173819 -6.73024e-17)
(6.84959 0.241494 -3.717e-17)
(6.87242 0.208488 4.41735e-17)
(6.81981 0.256588 6.02878e-17)
(7.83178 0.346371 1.0182e-16)
(7.78363 0.30091 -4.393e-17)
(7.82771 0.22793 0)
(6.8139 -0.0836362 2.82185e-17)
(3.05607 -1.51674 -7.24307e-18)
(6.61199 0.10355 -2.55785e-17)
(6.57604 0.151187 4.33124e-18)
(6.94734 0.059612 1.1062e-16)
(7.2713 -0.0819385 1.34223e-16)
(3.63568 -1.59126 0)
(3.43789 -1.67589 4.69788e-18)
(5.65275 -0.0416441 -9.11031e-17)
(5.48782 -0.0586016 3.76579e-17)
(7.37602 0.10342 0)
(6.83808 -0.0836128 8.42515e-17)
(7.51855 0.0779578 -4.73834e-17)
(7.33652 -0.16179 0)
(7.56941 -3.59088 9.57722e-18)
(7.51736 -3.36256 -9.60678e-18)
(5.08104 0.0682211 0)
(5.24487 0.00998843 -4.89846e-17)
(5.39182 0.078386 3.32139e-17)
(4.2346 0.297959 0)
(4.39696 0.255778 2.15217e-17)
(6.86118 0.275296 -1.53473e-17)
(6.84905 0.316349 -1.3956e-17)
(6.82044 0.330496 0)
(7.94966 -0.209387 -7.24042e-17)
(7.05404 0.010171 0)
(6.96897 -0.0053782 -3.80686e-17)
(6.50305 -0.00292949 -1.66132e-16)
(6.34059 -0.0731897 0)
(6.40833 0.00102547 9.95124e-18)
(7.11629 0.252282 1.87541e-17)
(7.12087 0.288253 3.4578e-18)
(6.22874 -0.0520649 0)
(6.21147 0.0439154 -2.44968e-17)
(6.10407 0.0975595 -1.12698e-16)
(7.01319 0.0295912 0)
(7.53239 -0.348687 0)
(7.66378 -0.299668 0)
(7.66394 -0.271999 0)
(0.79147 -0.108724 -5.27232e-17)
(2.94661 0.463377 -7.70674e-18)
(7.10881 -0.245825 0)
(7.07605 -0.283605 1.266e-17)
(7.03964 -0.27818 -8.00741e-18)
(3.65949 -0.729416 6.11716e-18)
(3.57842 -0.887863 0)
(7.71956 -0.121143 8.84337e-18)
(7.9746 0.0723223 6.54319e-17)
(7.71536 0.149438 0)
(9.70004 0.444361 1.1364e-18)
(9.65094 0.510839 0)
(6.00423 1.18119 1.60526e-19)
(6.56163 -4.46548 1.40795e-20)
(6.65511 0.560374 -7.00718e-17)
(3.90739 0.359571 2.03174e-18)
(6.51703 1.18354 -3.16269e-20)
(2.93595 0.510108 6.70131e-18)
(3.90615 -0.675877 0)
(6.12534 3.14398 1.5035e-19)
(5.53351 -3.16101 0)
(5.56219 -3.24275 0)
(7.21715 -4.43025 0)
(6.28214 2.21222 0)
(6.28394 2.19781 3.32652e-20)
(6.12411 2.33468 0)
(6.12031 2.35799 -1.90929e-21)
(6.14915 0.764835 0)
(7.90568 0.293595 -5.24227e-19)
(7.00444 -2.14276 0)
(3.77943 -2.29837 1.68651e-18)
(4.37168 0.229725 2.62361e-19)
(6.20545 -2.17981 7.50848e-20)
(6.24798 -2.23149 -9.46658e-20)
(7.0669 -4.43784 -2.29759e-19)
(7.07284 -4.44056 0)
(6.9437 1.06589 0)
(8.37887 0.946233 0)
(1.5342 -1.69588 4.22104e-17)
(2.81012 0.0919285 -2.19107e-18)
(2.45341 -2.83206 -6.04878e-18)
(2.34677 -2.7807 0)
(6.49626 2.72279 1.21539e-20)
(7.44095 0.799502 0)
(7.42965 0.841378 0)
(4.91896 0.97483 0)
(3.49444 -2.75202 0)
(7.42692 0.545116 -3.01707e-20)
(2.58325 -0.859505 -5.13976e-18)
(7.18401 1.2726 3.18453e-20)
(3.57566 -1.91463 -2.17585e-18)
(6.11346 0.782643 -1.41022e-22)
(4.25915 1.05768 0)
(4.23457 1.0162 0)
(6.52634 2.93832 0)
(8.01868 0.193874 -5.09116e-19)
(6.86058 -4.45379 1.08207e-18)
(3.21322 -3.72468 2.22394e-18)
(3.34975 -3.44172 2.89765e-20)
(6.98117 1.05609 0)
(8.47478 -0.557514 0)
(6.07025 3.17076 -3.76594e-19)
(6.02148 3.13052 0)
(6.02925 2.92148 6.66258e-19)
(6.68517 -0.745736 1.95367e-17)
(7.98791 0.520668 0)
(7.30216 0.973362 -7.09644e-20)
(6.68517 -0.840502 2.29001e-17)
(6.0776 3.53639 -1.49362e-21)
(6.80212 -2.09053 -6.34516e-20)
(6.7963 -2.04233 7.55414e-20)
(7.19175 -4.38124 1.08131e-18)
(7.20711 -4.36789 3.63529e-18)
(7.42713 0.696749 -5.10407e-20)
(7.43325 0.638137 -1.42245e-20)
(8.64432 -0.264341 1.41572e-18)
(6.22625 2.18301 0)
(6.26398 2.18993 -3.09214e-20)
(8.95442 1.00992 2.03603e-18)
(6.47263 1.00618 2.96033e-20)
(6.12436 -4.30751 2.31648e-18)
(5.46395 -3.01703 -2.15847e-18)
(5.86235 3.10183 -3.00993e-20)
(6.40665 -2.35053 2.85781e-20)
(7.79396 0.22419 0)
(6.00013 -2.42952 4.47932e-18)
(6.39082 0.904934 -7.7238e-18)
(6.29792 -1.48286 0)
(3.90372 -1.40454 3.27288e-17)
(9.05975 0.0381027 2.98164e-20)
(3.31166 2.18171 -2.59091e-18)
(5.72307 2.49359 1.40763e-18)
(5.67194 2.45786 -1.3757e-18)
(7.29011 1.14557 0)
(4.02095 -0.811323 -3.57995e-19)
(4.04283 -0.979276 -3.31655e-19)
(6.23826 2.32819 1.89539e-19)
(6.28524 -2.33821 6.71669e-20)
(4.32635 1.75855 -2.68876e-19)
(2.94519 -0.0734162 6.42478e-18)
(3.01414 0.091373 1.15654e-17)
(7.34188 -1.353 2.38482e-19)
(6.18811 0.987283 1.26244e-19)
(6.21369 1.01115 -2.05184e-19)
(6.36631 -4.46132 -1.24385e-18)
(6.2824 -4.45035 -2.63816e-20)
(8.37249 0.289155 3.87527e-19)
(8.37072 0.340417 2.78269e-19)
(7.19582 -1.65499 0)
(7.05111 0.530399 -8.18648e-21)
(4.28177 1.43596 1.40745e-18)
(4.36323 1.35132 1.83609e-18)
(7.05936 3.33521 1.22109e-19)
(7.14568 0.656906 -3.23746e-20)
(5.7118 -4.14934 -1.23153e-18)
(6.25147 3.30586 3.79148e-21)
(6.32871 3.19302 -3.70835e-21)
(4.60452 -0.249602 -1.4719e-18)
(4.78069 -0.330078 -7.13884e-19)
(7.88087 -0.849579 0)
(6.68188 0.605805 1.09278e-19)
(7.96124 0.717767 0)
(7.83939 0.678271 2.2738e-19)
(6.49629 0.73321 -1.74931e-19)
(4.24266 -1.48899 0)
(4.18278 -1.5111 0)
(6.35948 0.969271 2.52378e-20)
(7.60314 0.194192 -1.24155e-19)
(7.30161 -4.36265 0)
(5.63726 1.23209 0)
(7.65736 -3.62925 0)
(6.64938 -4.50303 6.96259e-19)
(6.62937 -4.51752 1.24976e-18)
(4.60102 0.19424 1.84645e-18)
(4.62098 0.12683 -1.65829e-18)
(3.47793 -1.10647 -3.56481e-19)
(8.38294 -4.51829 1.05281e-18)
(7.94151 -2.69446 1.2316e-19)
(1.20625 -3.34062 4.72018e-18)
(8.01669 -3.8259 4.5699e-19)
(5.94873 2.13279 -1.04808e-19)
(6.19081 2.45496 5.3596e-19)
(7.51267 -0.584781 -3.05458e-19)
(7.61955 -0.577839 1.29673e-19)
(5.80721 2.95322 7.08488e-20)
(4.07968 -0.64129 1.40359e-18)
(3.96516 -3.07353 6.83643e-18)
(6.64609 1.15093 0)
(9.3304 -2.09866 2.31244e-18)
(7.55982 0.930957 1.90031e-19)
(7.02706 -1.1204 0)
(6.72294 0.707702 3.96043e-20)
(6.20826 1.95105 6.68823e-19)
(6.1654 1.91163 -1.37438e-18)
(8.18201 -0.403769 4.42231e-19)
(8.16286 -0.314815 -8.04345e-19)
(6.00263 -2.65856 -3.67202e-19)
(4.43481 0.708917 -9.4559e-19)
(6.36483 2.36019 -8.58679e-20)
(6.43023 3.07956 -1.6257e-21)
(7.26411 1.09501 1.90457e-20)
(5.98549 1.11267 1.55747e-19)
(6.97938 0.599242 0)
(2.39973 -1.92935 0)
(3.89993 -0.588889 0)
(8.1902 1.62182 1.31167e-19)
(7.80513 -0.695591 2.31405e-19)
(7.12255 -1.65719 -1.41196e-19)
(6.97636 -1.71089 0)
(4.82498 0.0387387 -1.68845e-18)
(4.87937 0.0284907 0)
(5.4928 -3.53605 -1.1508e-19)
(5.61701 -3.58227 -7.45042e-19)
(6.71137 -1.00524 0)
(8.41013 -0.114591 0)
(8.39674 -0.0620605 0)
(7.12491 -4.42947 0)
(7.0911 -4.43685 0)
(6.55163 2.53365 6.25436e-21)
(6.54388 2.97453 -6.40437e-21)
(6.53517 3.01295 1.82092e-20)
(6.32264 2.35726 -1.048e-19)
(7.36993 -1.50037 2.53881e-19)
(7.23829 -1.58906 9.94585e-20)
(7.05379 3.3881 -2.72765e-19)
(5.74179 1.18686 0)
(5.92686 1.11155 3.05458e-19)
(5.93616 1.06601 1.57201e-19)
(7.2758 0.836114 1.59096e-19)
(7.37971 0.847551 -1.45458e-19)
(7.7138 -4.46565 5.33938e-18)
(7.77917 -4.43131 0)
(6.0593 2.33158 -3.00455e-20)
(7.1092 -1.01256 1.00342e-19)
(7.08858 -1.10876 0)
(2.98175 0.623587 -6.95608e-18)
(2.94491 0.581884 7.90323e-18)
(2.97678 0.7412 -3.54231e-18)
(7.01491 -4.38391 1.24601e-18)
(6.08207 -0.225308 0)
(6.31459 -0.898973 0)
(5.88543 0.630367 4.02836e-19)
(5.90403 -2.15108 0)
(4.54381 0.68131 -1.02701e-19)
(4.61274 0.578151 1.25917e-18)
(7.34229 -3.98458 4.8065e-18)
(7.4449 -0.580222 -3.5549e-19)
(6.2362 2.24348 -1.67034e-19)
(7.24812 1.73675 8.95746e-20)
(8.25551 -0.734105 0)
(8.34002 -0.595718 0)
(6.16849 0.397289 9.91813e-21)
(7.21382 -1.98881 3.64209e-19)
(6.70809 -4.52674 -2.94474e-19)
(6.49498 1.51905 8.93032e-19)
(7.86747 0.649525 0)
(7.94154 0.668149 0)
(6.45825 -4.41289 7.08707e-19)
(6.56458 -4.4259 0)
(7.33998 -4.61612 -9.29725e-19)
(4.75055 0.367507 0)
(4.59221 -0.181568 2.44506e-19)
(3.33734 -3.25656 0)
(6.3409 2.249 1.02242e-19)
(6.50246 -4.52416 0)
(6.33046 2.2852 4.94322e-20)
(6.37018 2.31859 -8.56989e-20)
(5.48857 -3.29698 3.40232e-19)
(5.32907 -3.38192 0)
(7.69871 -1.06782 0)
(7.64709 -1.11565 0)
(8.1829 1.18555 0)
(6.31156 2.27201 -5.19683e-20)
(6.27772 2.23861 1.62383e-19)
(6.3676 2.29719 -5.52067e-20)
(6.38897 2.29428 4.76498e-20)
(6.35241 2.28152 7.26703e-22)
(7.49657 0.638343 -1.32221e-19)
(4.9479 0.9424 0)
(9.25735 -2.14516 9.89265e-19)
(6.49927 2.75817 3.35241e-21)
(6.30015 2.56257 -2.61884e-19)
(6.26761 2.57215 0)
(5.97622 -4.36452 -4.75374e-19)
(5.97148 -4.39603 4.83915e-19)
(6.80656 1.03573 -8.21628e-22)
(4.24128 0.65599 -4.6663e-20)
(5.00599 -1.63752 -1.90813e-17)
(4.64687 -1.30804 2.13094e-17)
(5.76295 -1.99896 1.57877e-18)
(6.22838 1.08378 1.38336e-19)
(3.88165 0.295064 -3.27068e-18)
(6.09993 2.29156 -1.46289e-19)
(6.46304 2.35774 1.12508e-20)
(8.10741 -4.4261 -1.34157e-18)
(4.42258 1.2382 0)
(4.97641 -0.376707 -9.75337e-19)
(6.08806 2.37441 4.66704e-19)
(6.10095 2.36074 -6.3368e-19)
(6.06487 2.36329 -1.34762e-19)
(6.5333 -1.99746 4.54255e-20)
(7.11144 -1.38704 0)
(8.03411 -4.17971 1.3118e-18)
(6.88137 -1.39581 2.3145e-20)
(6.76932 -1.46965 3.02928e-20)
(7.76666 0.665629 1.64024e-19)
(6.96241 -4.41287 -2.54789e-21)
(6.8826 -4.42794 0)
(6.1001 -3.36583 7.25161e-19)
(7.5401 -4.44333 3.80903e-19)
(6.5049 -3.11164 1.48416e-19)
(6.78164 -4.49972 1.06397e-18)
(8.28864 -1.29585 -9.25651e-20)
(3.34718 -3.24215 -1.9312e-18)
(3.41431 -3.29599 -7.04167e-21)
(1.71795 -1.44975 1.62438e-17)
(6.89924 -4.41399 3.72875e-19)
(6.87582 -4.40044 0)
(6.93923 -4.40466 -4.15447e-19)
(2.8259 0.725538 -9.90809e-18)
(4.58136 0.907262 -4.38038e-19)
(4.57779 0.965478 2.2696e-18)
(6.31605 -1.64631 0)
(6.84627 -4.42866 9.60346e-19)
(8.02705 -0.83083 -1.55888e-19)
(8.12175 -0.783472 -1.8611e-19)
(6.41436 -0.41581 -1.7554e-19)
(7.53316 0.850389 1.29799e-19)
(5.45802 3.01661 -4.79878e-19)
(3.17921 0.541533 0)
(7.60593 -3.98723 0)
(6.46127 1.59604 4.51695e-18)
(6.674 -2.12256 -1.45527e-22)
(5.91309 2.73399 1.16836e-18)
(5.91768 2.8721 -5.18593e-19)
(6.64688 -1.01704 0)
(6.6323 -1.10123 3.16774e-20)
(6.5619 -1.13973 -1.06084e-19)
(7.29583 -4.51648 1.7688e-19)
(3.35904 -1.50352 -5.63956e-18)
(6.41333 2.71867 -1.03912e-19)
(6.29262 2.82546 4.86347e-19)
(2.29747 -0.988308 -1.30591e-17)
(6.18934 2.7294 1.40682e-18)
(5.91471 -3.7702 0)
(6.27032 2.96761 5.83299e-20)
(6.23041 3.07725 -4.41527e-20)
(7.08303 -4.42004 -6.90544e-19)
(5.17354 -0.389613 -1.17408e-18)
(6.34356 3.24312 0)
(6.31033 3.30153 1.12679e-20)
(4.12554 0.236445 -1.2912e-18)
(3.41937 -2.67009 1.36079e-18)
(7.79002 0.570616 5.39704e-19)
(3.97741 1.93848 -2.44923e-20)
(5.88952 -4.23015 7.80907e-19)
(5.79803 -4.21843 -1.75681e-18)
(6.42705 2.5654 -2.66721e-20)
(6.29004 -0.524234 0)
(4.20478 -0.158994 -1.66271e-19)
(4.24235 -0.266202 0)
(4.18903 -0.250798 1.5615e-19)
(4.23876 1.46309 -1.77763e-18)
(6.39582 -1.64107 -1.48006e-19)
(6.50755 -1.59694 0)
(6.70057 -1.5728 1.29381e-20)
(6.71459 -1.48904 -3.05599e-20)
(7.24156 -1.52751 8.00552e-20)
(7.31259 -1.47561 -2.7968e-19)
(7.99816 -0.79366 -1.58707e-19)
(7.92117 -0.801252 1.58252e-19)
(8.02732 -0.696668 0)
(4.34275 0.671481 -4.53421e-21)
(4.29055 0.6284 -2.2039e-18)
(3.88733 0.438046 5.46153e-18)
(6.74405 -1.24167 7.42137e-21)
(6.72028 -1.3319 0)
(7.00526 -4.43319 3.69309e-19)
(7.05172 -4.43236 -3.61212e-19)
(6.4726 -4.24148 -4.15067e-18)
(6.49778 -4.2824 2.08406e-18)
(5.64987 -4.17168 -8.77093e-19)
(5.34514 -3.95256 -7.9163e-19)
(7.71586 0.849413 5.01782e-19)
(6.15329 -3.77983 -1.72566e-18)
(6.03731 -3.73843 1.48088e-18)
(6.57693 -0.647412 -3.72606e-17)
(6.61334 -0.734245 -2.58322e-17)
(3.96019 -2.74863 4.51096e-20)
(3.88575 -2.74566 0)
(8.14445 -1.0322 8.13682e-19)
(2.8397 -0.0424865 -2.11462e-18)