/*--------------------------------*- C++ -*----------------------------------*\
  =========                 |
  \\      /  F ield         | OpenFOAM: The Open Source CFD Toolbox
   \\    /   O peration     | Website:  https://openfoam.org
    \\  /    A nd           | Version:  6
     \\/     M anipulation  |
\*---------------------------------------------------------------------------*/
FoamFile
{
    version     2.0;
    format      ascii;
    class       volScalarField;
    location    "1700";
    object      nuTilda;
}
// * * * * * * * * * * * * * * * * * * * * * * * * * * * * * * * * * * * * * //

dimensions      [0 2 -1 0 0 0 0];

internalField   nonuniform List<scalar> 
29884
(
0.276338
0.225626
0.122062
0.155995
0.15636
0.129646
0.194519
0.263906
0.213447
0.141145
0.153475
0.141699
0.15303
0.287417
0.280046
0.191822
0.28735
0.266231
0.279523
0.172457
0.278034
0.118572
0.142525
0.140649
0.144303
0.155027
0.194388
0.219177
0.150191
0.25348
0.14866
0.162942
0.195305
0.185293
0.143752
0.147362
0.24942
0.166602
0.179344
0.18797
0.231652
0.18485
0.176332
0.200848
0.183851
0.166936
0.175631
0.176437
0.136633
0.170883
0.167684
0.174261
0.192917
0.275208
0.263297
0.267611
0.187079
0.284245
0.262154
0.266556
0.198589
0.190463
0.135278
0.171051
0.166635
0.172806
0.280478
0.204333
0.302646
0.211426
0.141248
0.149598
0.143864
0.10938
0.317999
0.28096
0.234137
0.231227
0.225944
0.21158
0.18045
0.197658
0.113429
0.142316
0.118922
0.0973559
0.148765
0.156983
0.139607
0.0721872
0.145049
0.156876
0.100626
0.0637166
0.151754
0.000396659
0.139829
0.139902
0.149681
0.0663491
0.139777
0.139243
0.169892
0.177387
0.153543
0.196428
0.078254
0.0767189
0.153792
0.138981
0.16276
0.000133989
0.135934
0.118815
0.141899
0.142057
0.149604
0.111896
0.147764
0.136978
0.139772
0.141131
0.161417
0.140069
0.136955
0.262131
0.225326
0.203709
0.301043
0.147688
0.143027
0.147274
0.254201
0.23756
0.12897
0.144137
0.165758
0.152225
0.163725
0.163882
0.155646
0.162017
0.17323
0.157307
0.170911
0.173982
0.160472
0.165441
0.178562
0.173868
0.171484
0.0948647
0.0832604
0.183655
0.248997
0.215691
0.199081
0.175239
0.229548
0.201372
0.189247
0.156102
0.154289
0.172927
0.000300084
0.000297032
0.20465
0.160434
0.139506
0.13949
0.21218
0.139209
0.139042
0.114571
0.117412
0.151829
0.144038
0.188961
0.142641
0.156021
0.145705
0.128999
0.131199
0.135183
0.117498
0.132557
0.139601
0.139234
0.155559
0.150284
0.156001
0.14153
0.136695
0.143534
0.146337
0.146729
0.141196
0.146816
0.151877
0.149793
0.218064
0.177394
0.15369
0.142321
0.150033
0.136292
0.144709
0.128278
0.139507
0.185232
0.174647
0.215559
0.219221
0.194858
0.25771
0.043552
0.101028
0.0374842
0.11235
0.0392161
0.0372191
0.0428004
0.137491
0.119753
0.0856006
0.0348552
0.0408943
0.0543041
0.00642314
0.0451832
0.0459742
0.0377496
0.0479961
0.0360879
0.0381243
0.0467626
0.0452859
0.138047
0.146233
0.0172618
0.0255331
0.000666262
0.0423575
0.025364
0.0359163
0.123472
0.0400615
0.0381129
0.094827
0.0647205
0.0399574
0.0784378
0.114626
0.111406
0.0374375
0.0373726
0.0445039
0.0418501
0.0812236
0.0863398
0.0596272
0.102892
0.0172493
0.000940871
0.0826365
0.0337774
0.0421526
0.122838
0.122501
0.0337046
0.0874432
0.0888729
0.0474224
0.0302039
0.0270278
0.076961
0.0717176
0.0544244
0.0578293
0.0218036
0.152495
0.0459699
0.129587
0.0906099
0.138267
0.116832
0.116596
0.0273582
0.000247468
0.137793
0.0488616
0.0464015
0.047303
0.0195298
0.0340923
0.0345092
0.108594
0.0461925
0.0460338
0.0278694
0.0560001
0.0415542
0.0429956
0.0418861
0.0538861
0.0599384
0.0756403
0.131599
0.111239
0.112162
0.112883
0.110398
0.0422316
0.0135845
0.0147146
0.0365805
0.0392249
0.0431668
0.0455983
0.0428319
0.0543088
0.0639472
0.0586839
0.0588448
0.0379697
0.0897285
0.0411402
0.0422659
0.0444002
0.0392132
0.111314
0.112843
0.112981
0.111395
0.041969
0.0405301
0.137695
0.0802293
0.0479288
0.0461624
0.0426824
0.121313
0.0424438
0.111787
0.135749
0.0467592
0.0507133
0.049025
0.0483989
0.0723966
0.0716004
0.0655159
0.0874101
0.0883545
0.0860141
0.0627734
0.057263
0.0543609
0.0555099
0.0578696
0.0635897
0.0739486
0.132655
0.121324
0.110049
0.110233
0.120634
0.133086
0.000474926
0.0406188
0.0426763
0.0410745
0.137067
0.144394
0.129512
0.10023
0.0956874
0.043433
0.0348417
0.0364546
0.0338273
0.117221
0.126874
0.122693
0.131592
0.0312975
0.0353498
0.0331775
0.0332493
0.089231
0.0854579
0.0837656
0.0913518
0.0376287
0.0388243
0.0395582
0.043739
0.0425251
0.0346856
0.0295984
0.0834048
0.0711043
0.0925071
0.0850008
0.0883541
0.0899242
0.0200585
0.137256
0.138483
0.139458
0.138713
0.0406283
0.0423423
0.0478893
0.0471452
0.0451537
0.0597947
0.0602402
0.0341638
0.0389201
0.0394464
0.0137222
0.0535637
0.0569836
0.0506767
0.0719949
0.0796412
0.0740624
0.0765662
0.050333
0.0555826
0.053389
0.0524393
0.130057
0.0645462
0.0621049
0.0667246
0.0605423
0.040533
0.0424068
0.0391535
0.0409627
0.0406964
0.039265
0.151349
0.150022
0.135427
0.0427058
0.041124
0.0426679
0.0405438
0.122067
0.137933
0.0756968
0.0852988
0.130621
0.145335
0.139458
0.130517
0.153223
0.00588439
0.124289
0.125703
0.0758703
0.0314437
0.0329377
0.0342176
0.0307113
0.0818773
0.0907578
0.0867618
0.0863256
0.137946
0.13776
0.138015
0.139672
0.139611
0.165864
0.151223
0.157613
0.159015
0.14059
0.144576
0.142497
0.142438
0.024963
0.0234831
0.0224064
0.0253592
0.104234
0.103092
0.106712
0.0449846
0.0421812
0.0422193
0.0446812
0.136954
0.134703
0.136209
0.000666329
0.00439464
0.138674
0.0107388
0.119885
0.139543
0.138718
0.000930132
0.00127999
0.139035
0.139055
0.139226
0.138869
0.0581626
0.138507
0.121129
0.000273636
0.000322416
0.137316
0.035547
0.229789
0.139321
0.255896
0.126323
0.140694
0.138866
0.000651943
0.141472
0.134202
0.140304
0.13779
0.0441512
0.121866
0.137965
0.12326
0.134828
0.144588
0.12966
0.124466
0.170468
0.210883
0.240727
0.103866
0.103494
0.139054
0.139034
0.139751
0.139593
0.130155
0.00574665
0.12853
0.121839
0.104456
0.139125
0.112945
0.139115
0.139096
0.139064
0.00272337
0.138412
0.138628
0.0429937
0.0493517
0.0492083
0.122643
0.243804
0.20949
0.122937
0.119035
0.123488
0.102039
0.107272
0.127677
0.128426
0.184425
0.204847
0.128512
0.252061
0.138239
0.138339
0.25318
0.207079
0.000862661
0.126613
0.261399
0.0963012
0.14182
0.142992
0.000373875
0.0763216
0.0700037
0.137488
0.139576
0.139369
0.108328
0.12109
0.131276
0.129554
0.0399861
0.0399005
0.144052
0.14148
0.145012
0.139527
0.139269
0.00100917
0.13893
0.13734
0.136088
0.13781
0.138069
0.13829
0.183992
0.133351
0.136269
0.130155
0.132755
0.160406
0.166214
0.199388
0.177087
0.121033
0.137556
0.133476
0.141494
0.134602
0.125568
0.145767
0.159888
0.150049
0.146691
0.123367
0.119511
0.0567925
0.0522226
0.0483133
0.0388663
0.139018
0.140663
0.142134
0.253615
0.194638
0.0872545
0.0935569
0.200823
0.172026
0.196865
0.145546
0.159307
0.153786
0.16453
0.234715
0.189103
0.181589
0.0419715
0.042004
0.138768
0.138572
0.139564
0.138295
0.157137
0.111449
0.114782
0.118434
0.137583
0.13819
0.137562
0.137647
0.13724
0.139676
0.162108
0.153542
0.132961
0.139652
0.142585
0.145246
0.135692
0.136281
0.212138
0.267783
0.237946
0.109303
0.11363
0.116089
0.00428825
0.00468534
0.136159
0.133534
0.0654371
0.0612435
0.165913
0.168768
0.162047
0.0320166
0.0303503
0.0573086
0.0568143
0.0379375
0.0388232
0.0437466
0.0776826
0.073341
0.0759178
0.0293275
0.065815
0.00607861
0.0423366
0.0179515
0.060882
0.0348041
0.00654843
0.047952
0.0346882
0.00780925
0.00657871
0.00701479
0.0897056
0.0900448
0.0721311
0.0627397
0.0630724
0.0772256
0.0508894
0.0500145
0.0163161
0.0755656
0.0747838
0.0540591
0.0558338
0.0557972
0.0621331
0.061024
0.0612807
0.0288603
0.0755824
0.075419
0.0106756
0.00282097
0.0351845
0.037001
0.0329444
0.0944768
0.0947498
0.0256438
0.0336035
0.0267101
0.081787
0.0770027
0.0645739
0.0103826
0.046932
0.047127
0.0669838
0.0528372
0.0555036
0.0614164
0.0593667
0.0513116
0.0944703
0.0641299
0.0325107
0.065259
0.0132399
0.015844
0.106476
0.0977776
0.0257569
0.0674373
0.0238963
0.0457318
0.0155639
0.0605709
0.062646
0.0926094
0.00155901
0.0454148
0.0712029
0.0722435
0.0465914
0.0455601
0.0748325
0.0477634
0.0481524
0.0463361
0.00154034
0.0676284
0.0365142
0.0372487
0.0221024
0.0675182
0.0673767
0.0406656
0.0423322
0.0312736
0.0318395
0.063806
0.0476655
0.0382212
0.0764486
0.0735759
0.104594
0.0445689
0.00840783
0.0647969
0.0647401
0.0354104
0.0523906
0.0546603
0.0108623
0.00164224
0.0475003
0.0347423
0.0638846
0.0635736
0.0413939
0.0387861
0.051101
0.0516953
0.0374184
0.00930596
0.0473172
0.0386915
0.0382893
0.029359
0.0575912
0.0354708
0.00143755
0.0249613
0.0888604
0.00576296
0.00579721
0.0960411
0.096077
0.118779
0.05665
0.0723912
0.00949558
0.0782845
0.0666263
0.071686
0.0453103
0.0341508
0.0590628
0.0385632
0.0365499
0.0794984
0.00674863
0.0133976
0.0518414
0.0641717
0.070472
0.0468155
0.0493622
0.0555812
0.0775254
0.0570902
0.0566832
0.0500367
0.0714271
0.0669871
0.0653534
0.0556982
0.0531995
0.0402181
0.0363596
0.0349448
0.0342815
0.0535877
0.0690272
0.0340203
0.0430654
0.0414554
0.0649421
0.0829152
0.0473364
0.0348575
0.0616746
0.0626772
0.0456719
0.1362
0.107656
0.0564403
0.0572483
0.0554104
0.0851704
0.0376453
0.0681336
0.0435462
0.0761678
0.0760263
0.0346056
0.0623411
0.0233992
0.082319
0.0410759
0.0620283
0.0629403
0.0436254
0.0561267
0.0557098
0.0400634
0.135316
0.0874603
0.0173374
0.0169442
0.0517361
0.0699906
0.0689665
0.083748
0.0787215
0.0770335
0.032461
0.0408595
0.0384121
0.0104484
0.0534404
0.053634
0.0546727
0.0742881
0.07452
0.0728347
0.0727132
0.0521799
0.051523
0.0291517
0.0637443
0.0648258
0.0639202
0.042151
0.0708379
0.014023
0.0564675
0.0384356
0.035426
0.0193156
0.0665003
0.049344
0.085116
0.0859925
0.0340162
0.0372414
0.0670165
0.0549646
0.0252085
0.0869092
0.0872168
0.0371792
0.0603341
0.0376598
0.00507088
0.125962
0.124271
0.0659675
0.07262
0.0736586
0.0821108
0.0831332
0.0677603
0.103589
0.0198406
0.0233886
0.07659
0.0795242
0.0733779
0.0596643
0.0660206
0.0620562
0.0633789
0.0419219
0.0398514
0.0896268
0.0900347
0.0536759
0.0310529
0.0309242
0.0642646
0.064691
0.0161887
0.0109093
0.00783234
0.05734
0.0446414
0.0668261
0.0677027
0.00482703
0.00420003
0.0631882
0.0630054
0.06396
0.0460719
0.0437658
0.0427222
0.0512366
0.0669982
0.0364858
0.0360831
0.0380593
0.0165434
0.017355
0.105926
0.0645101
0.0186806
0.0178313
0.0691052
0.0687967
0.0478241
0.0476025
0.0481505
0.0517943
0.0513723
0.00448223
0.0425787
0.0584032
0.105898
0.012038
0.0119427
0.0170983
0.0344382
0.0422727
0.0394927
0.0751942
0.0352304
0.0944267
0.0957346
0.115744
0.110034
0.0490786
0.0343219
0.0350452
0.0387999
0.0401493
0.100685
0.100121
0.0988971
0.0391077
0.0425235
0.0416736
0.0112443
0.016585
0.0628795
0.0230756
0.0237404
0.05228
0.0532273
0.0909663
0.0506465
0.0514603
0.0432916
0.0380363
0.0667296
0.0669709
0.06618
0.067547
0.0683045
0.0518459
0.0705277
0.0068576
0.0205694
0.0237389
0.0147796
0.0150914
0.0497887
0.0540599
0.038807
0.0407608
0.0580553
0.0580677
0.0579992
0.0587547
0.057116
0.0488129
0.0474861
0.0335935
0.0362541
0.0342196
0.0661939
0.0666806
0.0654973
0.00419766
0.0653937
0.106196
0.103611
0.0654628
0.0646569
0.0656176
0.0638618
0.0649736
0.0399675
0.0420257
0.0413304
0.0405917
0.0584289
0.0541424
0.0426172
0.0951132
0.0946057
0.0944339
0.0605113
0.0885962
0.0300185
0.0228133
0.0200539
0.0311629
0.0292583
0.0333876
0.105555
0.0544834
0.0551098
0.0745534
0.107033
0.104151
0.0598039
0.0967142
0.0504827
0.0490488
0.0501924
0.0437822
0.0424442
0.0446538
0.0853284
0.045263
0.0718213
0.0719576
0.104621
0.0433728
0.0774615
0.0772292
0.0773671
0.0380577
0.000964311
0.0463708
0.0489882
0.0475264
0.0121642
0.000411464
0.10222
0.0525207
0.107928
0.0494327
0.050348
0.0782356
0.0573885
0.0795971
0.112555
0.0155922
0.0763978
0.0760518
0.0787617
0.0327026
0.101227
0.0999082
0.102167
0.0659062
0.0664478
0.000673491
0.0506983
0.0496279
0.10019
0.102909
0.0981765
0.000774355
0.000801291
0.0922637
0.0238181
0.0203595
0.047249
0.0493174
0.0487015
0.0478133
0.0879117
0.0301567
0.0291586
0.0443575
0.000612086
0.0712009
0.0714709
0.0805386
0.0793055
0.0644648
0.0170512
0.064556
0.0631308
0.0984057
0.0986836
0.0170136
0.0861824
0.086858
0.0868441
0.0604216
0.0604252
0.0741056
0.0872937
0.060908
0.0544668
0.00198889
0.0435716
0.0610999
0.000572921
0.0358408
0.0918682
0.0546792
0.00532559
0.0486483
0.047222
0.0610359
0.0619536
0.0876876
0.083686
0.0590737
0.059917
0.0563414
0.0777521
0.0789303
0.0772969
0.0772057
0.0766752
0.00095119
0.0240061
0.000511459
0.0571757
0.00515055
0.135999
0.136211
0.136315
0.135977
0.0658885
0.0557526
0.0557836
0.1378
0.138132
0.0573728
0.0788311
0.0772479
0.0770699
0.0451656
0.0607107
0.0677892
0.0695192
0.0935994
0.0897689
0.0388572
0.0364664
0.0370031
0.000541092
0.0344868
0.0354873
0.0363442
0.0338262
0.076375
0.0764286
0.0327414
0.0937112
0.0952343
0.0771894
0.0439068
0.0442746
0.042198
0.0445739
0.0428325
0.0458807
0.0282708
0.0276075
0.128002
0.0463505
0.0377336
0.0374364
0.0652954
0.0660959
0.0927524
0.0927749
0.0935086
0.0920565
0.0729293
0.0728516
0.0624717
0.0459787
0.0461337
0.0457652
0.098502
0.0962764
0.000326152
0.0445818
0.0453522
0.0162057
0.0138662
0.000446788
0.000653601
0.000626581
0.0399722
0.0393763
0.00835333
0.00872557
0.0937886
0.0761023
0.0857658
0.0467322
0.0393291
0.0161312
0.0155253
0.0176144
0.0453932
0.044475
0.0456086
0.0446301
0.0004514
0.000767624
0.000791047
0.00116586
0.00939255
0.0126486
0.0347724
0.0337254
0.000852042
0.0445238
0.0259596
0.0922628
0.0920347
0.0945747
0.0912828
0.0919686
0.0909927
0.105364
0.106913
0.104249
0.102531
0.0725994
0.0405775
0.0424513
0.0401884
0.0529239
0.0535802
0.0511896
0.116368
0.105277
0.110266
0.0945761
0.0954787
0.0955511
0.0746021
0.0709565
0.0709793
0.0701903
0.0680782
0.072317
0.0491003
0.069813
0.0691333
0.069956
0.000419785
0.000695509
0.0895834
0.0904667
0.0899936
0.0900224
0.0360915
0.0666891
0.0670636
0.0659425
0.0918616
0.0931617
0.0935837
0.09131
0.0576337
0.0580777
0.056636
0.157028
0.0395105
0.0447769
0.0450834
0.0444773
0.0454854
0.0785012
0.0844939
0.0614917
0.0622291
0.0665565
0.0655265
0.0258942
0.128408
0.0346265
0.033174
0.105589
0.000372093
0.0398458
0.0473868
0.0669208
0.0673726
0.0664806
0.0837171
0.0847026
0.00799062
0.0453418
0.0448615
0.0466765
0.0314762
0.0328613
0.0293341
0.0351654
0.0373626
0.0367678
0.00471116
0.00453885
0.0485998
0.0493336
0.0634673
0.0631831
0.0642974
0.000348252
0.0572192
0.000622438
0.0649745
0.0452383
0.0439018
0.0450651
0.0436456
0.00163015
0.0478669
0.0490086
0.0484667
0.0691289
0.0503696
0.05955
0.0579205
0.0432049
0.0429134
0.0421879
0.043899
0.0429298
0.039873
0.0418947
0.0405715
0.0413214
0.0396041
0.0413245
0.043184
0.00107677
0.00430161
0.0901931
0.0905709
0.0898079
0.0908804
0.0551935
0.0557671
0.0561436
0.0356143
0.0433881
0.0433911
0.0449277
0.061431
0.0607352
0.0611149
0.0950644
0.0970177
0.0957043
0.0970332
0.0983188
0.0479385
0.0462342
0.0463459
0.0477334
0.10331
0.10509
0.104417
0.103843
0.0308848
0.0297022
0.0324196
0.0533129
0.0522146
0.0655214
0.0655301
0.0648847
0.0428008
0.0410198
0.0705205
0.0720611
0.12066
0.11907
0.119367
0.120437
0.0818867
0.0784296
0.0795252
0.0422349
0.0439716
0.0309348
0.0287295
0.0283623
0.0172247
0.0585131
0.0574541
0.0605029
0.0497273
0.0503944
0.0388737
0.0864203
0.088363
0.0881631
0.0864444
0.00109393
0.0540507
0.055278
0.0543836
0.0549132
0.137041
0.1372
0.0554808
0.0537881
0.0544697
0.054789
0.0524563
0.052686
0.0511908
0.0252216
0.0274454
0.0246526
0.0475435
0.048877
0.0475613
0.0489338
0.0528986
0.0686877
0.0590066
0.0441649
0.0434764
0.0444246
0.0431161
0.00759347
0.0686378
0.00738824
0.00727996
0.0928386
0.0921186
0.0921834
0.0927304
0.0637716
0.0496721
0.0491331
0.0650537
0.0647185
0.0650164
0.101468
0.0858368
0.0465743
0.0471525
0.046007
0.0387392
0.0355096
0.0368
0.0372961
0.0371425
0.0769572
0.0763438
0.0107435
0.0131274
0.0526512
0.0516165
0.051817
0.00117631
0.0521794
0.0673714
0.0744301
0.0739004
0.0758417
0.0620774
0.0388401
0.0372563
0.0395182
0.11104
0.108419
0.109812
0.0457012
0.0454851
0.128525
0.129577
0.0355719
0.0365029
0.0373403
0.0991484
0.0954305
0.0894131
0.0124076
0.0150214
0.0137811
0.0112164
0.0110264
0.011877
0.0098269
0.0152476
0.0514904
0.0591264
0.060167
0.0558494
0.0554832
0.0568315
0.0638528
0.063216
0.0488991
0.0487369
0.0924602
0.0929643
0.0424797
0.0441941
0.10443
0.118937
0.0967374
0.0975672
0.0837366
0.0860918
0.0822874
0.0859269
0.0878184
0.0868527
0.0231472
0.0277255
0.0601867
0.0588948
0.059382
0.0597326
0.0740254
0.0431143
0.0438032
0.0445094
0.0449035
0.0442718
0.0461948
0.0428696
0.00084682
0.0466381
0.0470449
0.0479875
0.0740134
0.0698076
0.0390226
0.038092
0.0654733
0.0647592
0.0656844
0.0762032
0.082413
0.0486676
0.0483946
0.0487437
0.0484268
0.0334711
0.0925918
0.0915651
0.0415095
0.0408972
0.0419512
0.0403913
0.0618965
0.0625303
0.0612724
0.00614724
0.00669978
0.00532629
0.0830126
0.0845856
0.0805393
0.0408996
0.0397362
0.046341
0.0445525
0.0514688
0.0521349
0.0523001
0.0631076
0.0417183
0.0430289
0.0432152
0.0798892
0.0422592
0.0406149
0.0412319
0.0416772
0.111264
0.109384
0.109524
0.111031
0.0723316
0.0414635
0.042641
0.0413962
0.04308
0.0642607
0.092722
0.0923605
0.0934096
0.0917704
0.0910845
0.092054
0.0925138
0.090761
0.0347308
0.049282
0.0487989
0.0491788
0.0493659
0.000595188
0.00635951
0.0709447
0.0704348
0.0585632
0.0593373
0.0594796
0.0588316
0.060226
0.0473584
0.0465971
0.00676286
0.00814651
0.0560519
0.0545807
0.0555992
0.0551329
0.07438
0.0888553
0.0878984
0.0884788
0.00819801
0.0543612
0.0534579
0.0546821
0.0530563
0.0408953
0.0421028
0.0409967
0.041885
0.0847489
0.084401
0.0837493
0.076981
0.0222233
0.0214709
0.0210589
0.0224779
0.0283105
0.0294654
0.0490314
0.0650773
0.0651582
0.0652049
0.0449138
0.0467642
0.0460716
0.0455828
0.0764132
0.0767875
0.0553196
0.0563079
0.0562397
0.0553121
0.0396201
0.0447955
0.0446877
0.0413206
0.0245205
0.0218816
0.042224
0.0434565
0.0726264
0.0720754
0.0727544
0.0988038
0.0981618
0.0978006
0.0328798
0.0315715
0.0323325
0.0573647
0.0578142
0.0582985
0.0568638
0.0349009
0.0435362
0.0430301
0.0442932
0.0422174
0.00436819
0.0371154
0.0336413
0.0368576
0.057441
0.0583277
0.0583495
0.0573391
0.128166
0.0898984
0.0891684
0.0891987
0.0898054
0.0589026
0.0598672
0.0587769
0.0358397
0.0918145
0.0911847
0.0918308
0.0564538
0.0580162
0.0290717
0.0320407
0.0306956
0.045901
0.0450761
0.0461235
0.0690457
0.0368914
0.0751682
0.0507921
0.0466924
0.0887467
0.0880652
0.091399
0.00990233
0.00833222
0.0110227
0.0606462
0.0454552
0.0463653
0.0447337
0.0309187
0.0301348
0.0877755
0.0853947
0.086055
0.0872322
0.091511
0.0909795
0.0439068
0.0458602
0.0910085
0.0892979
0.0910619
0.089011
0.123964
0.12438
0.0400942
0.0897502
0.0895697
0.089466
0.0735274
0.0744933
0.0732652
0.0165196
0.0323852
0.0318276
0.0337416
0.03072
0.0433307
0.0454019
0.0444392
0.0443092
0.047367
0.0455855
0.0465095
0.110855
0.0945443
0.110264
0.0989946
0.0242983
0.0804794
0.0795452
0.114117
0.115727
0.0463606
0.0454528
0.0451839
0.0465093
0.0910737
0.0903634
0.120508
0.118699
0.0383075
0.0596483
0.0604399
0.060786
0.0239899
0.0215465
0.0233431
0.0215466
0.0286486
0.0314492
0.0443066
0.0450533
0.0443454
0.0291605
0.0252643
0.0276147
0.0271655
0.05792
0.0568951
0.108873
0.0990826
0.038333
0.0404151
0.0398441
0.0384624
0.061517
0.0177481
0.0188742
0.0202035
0.0168899
0.107815
0.106061
0.108741
0.0337284
0.0352868
0.0352394
0.0357648
0.0347
0.0362455
0.0745922
0.077626
0.0236484
0.0245701
0.0956621
0.0651647
0.0902906
0.0890972
0.0829015
0.00386822
0.0684481
0.0677594
0.0682253
0.0460481
0.0154437
0.0364397
0.0818194
0.0723283
0.0677228
0.09014
0.0791183
0.0799664
0.0790649
0.0533388
0.0548523
0.000286378
0.0546527
0.0399684
0.114996
0.113063
0.113668
0.114429
0.0598113
0.0609089
0.0606396
0.0600523
0.102851
0.103831
0.102153
0.104403
0.0377052
0.0383257
0.0388351
0.0371212
0.0642337
0.063727
0.0643561
0.0635357
0.0440319
0.0447653
0.0425291
0.0301073
0.0353757
0.0444315
0.046691
0.0454703
0.123601
0.122415
0.0555503
0.0266676
0.0944614
0.0950004
0.0954038
0.0316122
0.0675237
0.0663128
0.0649498
0.0686796
0.0655931
0.0630258
0.0620475
0.0623656
0.0627161
0.048186
0.0447919
0.0470252
0.0457005
0.0884599
0.0880574
0.0887201
0.0877629
0.0762905
0.0747034
0.0751421
0.0758362
0.0668477
0.0668992
0.067201
0.0665102
0.032576
0.030502
0.0320363
0.0309187
0.0422523
0.041077
0.0440204
0.0426646
0.0422842
0.0438816
0.114509
0.117274
0.115726
0.0729227
0.045449
0.044224
0.044648
0.0416212
0.0385682
0.0409599
0.0382378
0.0390718
0.0373088
0.0380057
0.024979
0.0636349
0.0631235
0.000272982
0.0477402
0.0492599
0.0480603
0.0488738
0.0667861
0.051858
0.0613345
0.0399333
0.00424058
0.00442988
0.00425134
0.043101
0.0437376
0.127945
0.0401847
0.0396355
0.0553723
0.0543307
0.0552951
0.0435948
0.0440155
0.043772
0.0442681
0.047983
0.048702
0.048212
0.058381
0.0602045
0.0419784
0.0438719
0.0427404
0.000244192
0.0432206
0.0435526
0.109993
0.108489
0.0681392
0.069442
0.066645
0.0707604
0.0307109
0.0337942
0.03469
0.0370366
0.118773
0.117622
0.0473458
0.0471203
0.048026
0.0464725
0.0415312
0.0413146
0.0398582
0.110664
0.108106
0.109248
0.109454
0.0857021
0.0848634
0.0860253
0.0843947
0.0829643
0.0843344
0.0842087
0.0829898
0.0758398
0.0762278
0.0749395
0.0329641
0.0336533
0.0339068
0.0325929
0.0326997
0.0341432
0.111422
0.0185939
0.0212072
0.0205948
0.0011141
0.0432403
0.0422653
0.0425317
0.0748286
0.0731232
0.0811097
0.0819873
0.0807686
0.0822319
0.0236453
0.0213095
0.0866522
0.0863852
0.0858563
0.0871499
0.116639
0.117611
0.118071
0.116109
0.0446652
0.0454858
0.0440689
0.046189
0.0495993
0.0497485
0.0495154
0.0419443
0.0429781
0.0432452
0.0415513
0.0755043
0.0759722
0.075305
0.0539596
0.0883964
0.0876315
0.0885117
0.0875853
0.0243426
0.0291889
0.0141262
0.0113016
0.0580836
0.00461949
0.00329486
0.00302264
0.0291854
0.0356081
0.0115511
0.000632823
0.000860146
0.000600418
0.000304777
0.0286282
0.000390847
0.000450691
0.0104082
0.0102657
0.0367799
0.0113151
0.0103497
0.138817
0.0169519
0.128891
0.0144014
0.0304589
0.0304521
0.00744418
0.000527272
0.0814686
0.0139952
0.00598728
0.00633145
0.00985704
0.104635
0.137051
0.0160152
0.0170829
0.0298212
0.00284162
0.0892862
0.13726
0.0598955
0.122624
0.119189
0.0496072
0.00336437
0.01504
0.000402044
0.000593065
0.000566342
0.0248981
0.0233793
0.00682833
0.0252314
0.00277446
0.00325801
0.0231595
0.000629335
0.0563631
0.030376
0.138666
0.138546
0.000469749
0.0227849
0.021783
0.0129105
0.00808603
0.021983
0.0215685
0.0223885
0.0474221
0.0491618
0.00678237
0.0503465
0.137524
0.137179
0.0212641
0.00056624
0.00516971
0.00416503
0.04763
0.0121312
0.0185406
0.000497061
0.019487
0.0237897
0.130159
0.00312724
0.0153929
0.0133265
0.138391
0.11426
0.00428273
0.0803265
0.0379858
0.00777945
0.135176
0.0244714
0.00232675
0.0353227
0.0342262
0.0089583
0.0204287
0.021256
0.0230649
0.0186883
0.026503
0.0252066
0.0261064
0.0366402
0.0017541
0.0198345
0.0349961
0.136151
0.0174499
0.118979
0.015271
0.129447
0.000629222
0.0221861
0.0211162
0.022133
0.0622129
0.0270153
0.0278871
0.0058904
0.000377966
0.00143618
0.002702
0.0749711
0.0706412
0.0177425
0.0286344
0.00538411
0.00671291
0.00260246
0.0296509
0.0313204
0.15125
0.00218624
0.137219
0.137639
0.0539327
0.0154835
0.0352213
0.0568462
0.0559919
0.0346561
0.0331903
0.0347523
0.0284167
0.00829159
0.00409709
0.0372169
0.0157186
0.0219597
0.0297953
0.030304
0.0284686
0.00522262
0.00824969
0.0459799
0.0453978
0.0303568
0.0279817
0.0282146
0.0352361
0.0363863
0.0514965
0.00388085
0.00396955
0.0468799
0.138573
0.00394416
0.00518729
0.00464375
0.0031481
0.00424123
0.00428738
0.00562269
0.0180211
0.00385641
0.00441421
0.0058643
0.00427814
0.00579453
0.0305955
0.0299078
0.0306373
0.00451062
0.0062468
0.0357241
0.000561129
0.000884074
0.0308513
0.00300022
0.0196259
0.0176477
0.0243458
0.0232932
0.00770824
0.0086601
0.00555335
0.00721609
0.123334
0.00504473
0.0784966
0.0775868
0.0773687
0.03827
0.0232666
0.00630197
0.0203451
0.00588476
0.131239
0.0253961
0.00254929
0.0118885
0.0111427
0.0136064
0.0100882
0.0068527
0.140006
0.0224196
0.0242063
0.00413764
0.0032998
0.058594
0.0685612
0.155177
0.149333
0.0074401
0.0182809
0.138783
0.0222617
0.0223311
0.000578586
0.00784924
0.0142462
0.117656
0.120184
0.00891002
0.0507821
0.0095581
0.00829489
0.00943709
0.00440108
0.0429566
0.0451069
0.0467809
0.00122416
0.0352625
0.131432
0.129086
0.114977
0.0551876
0.0190637
0.0380098
0.0323226
0.0668688
0.139189
0.139066
0.0226489
0.137504
0.00173788
0.00218431
0.00917712
0.0252716
0.0116829
0.0410273
0.0411028
0.0396079
0.0396832
0.00444859
0.00277534
0.0019701
0.159475
0.0516382
0.0116885
0.120971
0.129665
0.130207
0.0359929
0.0720905
0.0700522
0.16642
0.148326
0.00142235
0.00821557
0.0587744
0.0577686
0.0066338
0.00606852
0.0307993
0.0300564
0.0816844
0.0797756
0.0518175
0.0539157
0.0419098
0.0142841
0.0132361
0.057877
0.0366573
0.0363522
0.0301176
0.0287991
0.0356527
0.0167335
0.00478734
0.025051
0.0048362
0.139198
0.0106688
0.0119158
0.0240701
0.0379154
0.0235612
0.0239054
0.101133
0.0941841
0.109486
0.0241856
0.0546834
0.0148887
0.138151
0.0335929
0.00175336
0.0374137
0.00368575
0.0038017
0.137749
0.0305446
0.0304218
0.0154953
0.13773
0.0917205
0.099056
0.0220929
0.0381647
0.0387384
0.0785524
0.0793926
0.036134
0.0333127
0.0362017
0.0340872
0.0357402
0.0722147
0.0634878
0.136079
0.136602
0.0593477
0.0591913
0.0676834
0.00723024
0.00620152
0.0708908
0.0166066
0.136805
0.0639045
0.0659744
0.0678498
0.0387849
0.03722
0.0384372
0.11293
0.147131
0.139359
0.0693565
0.0680843
0.0687271
0.122469
0.00597196
0.0252014
0.0207684
0.0154283
0.0151003
0.0988361
0.024824
0.0316261
0.0345713
0.0198369
0.170509
0.0130597
0.0387746
0.0142784
0.018605
0.0104756
0.0141003
0.0144853
0.121713
0.124152
0.123093
0.0276444
0.0280957
0.0117061
0.0684364
0.0153073
0.014575
0.0329782
0.0295585
0.0290959
0.037276
0.0720088
0.0297543
0.0314717
0.133036
0.12703
0.00186397
0.00243162
0.138695
0.0164068
0.00819468
0.0125153
0.119037
0.117536
0.138558
0.110014
0.138666
0.132962
0.1322
0.0202727
0.023635
0.126082
0.126976
0.124869
0.125484
0.0400743
0.0379835
0.0962009
0.0983977
0.12575
0.123541
0.00321907
0.118863
0.117764
0.0312922
0.138914
0.138745
0.138689
0.0896391
0.0855113
0.137673
0.139693
0.138333
0.0550408
0.0250204
0.0266116
0.0265497
0.0428831
0.0425578
0.0431111
0.153922
0.155069
0.0563322
0.0250644
0.0262522
0.158292
0.155764
0.0502965
0.0507791
0.0286573
0.0314787
0.000414644
0.00265825
0.0514757
0.00855869
0.0101839
0.0107976
0.0763533
0.000865567
0.00131838
0.0548635
0.0554659
0.0177766
0.00807134
0.00773859
0.00895071
0.00560197
0.0234646
0.0240187
0.0261842
0.113255
0.114972
0.0186645
0.0141948
0.0152177
0.006216
0.00706004
0.129515
0.127709
0.134424
0.143003
0.150844
0.109467
0.0390031
0.0383721
0.0328212
0.0366412
0.0353503
0.0520135
0.0615682
0.0438208
0.0426929
0.0195609
0.0208183
0.138682
0.138607
0.242683
0.22711
0.0297218
0.00805592
0.0321323
0.0106563
0.0117334
0.0103124
0.0101902
0.00720276
0.118759
0.017753
0.0214363
0.0302697
0.0280116
0.0604414
0.0617196
0.0380371
0.0371855
0.034556
0.0320187
0.0167756
0.0104838
0.0277145
0.0086151
0.0337581
0.13665
0.0129531
0.0137762
0.143947
0.15008
0.0271241
0.0206646
0.0185522
0.00950742
0.0387564
0.0399712
0.0505647
0.0401562
0.0396137
0.0592652
0.0242077
0.000583212
0.0411942
0.04174
0.0166562
0.0130668
0.0155748
0.0825151
0.0832986
0.0823888
0.0491421
0.0671778
0.0654061
0.0700314
0.0684649
0.133674
0.0976148
0.0983432
0.0311352
0.0331622
0.0328574
0.0530533
0.0755378
0.0112725
0.139918
0.139677
0.139885
0.135162
0.0444739
0.0208267
0.0224045
0.0290932
0.025824
0.0579933
0.0346653
0.0369002
0.0517324
0.0560975
0.037865
0.0281247
0.098667
0.104304
0.108748
0.0293077
0.0291255
0.0428548
0.0431595
0.0221524
0.073212
0.0715026
0.0551333
0.128281
0.0378703
0.00537256
0.00603692
0.135324
0.0238802
0.0660055
0.00353439
0.0213091
0.0197853
0.0215171
0.0197333
0.0260557
0.045131
0.0100508
0.00849274
0.00778193
0.0953992
0.0328591
0.000962995
0.00156223
0.0656415
0.138271
0.0647196
0.0650933
0.0401043
0.111794
0.1068
0.0196325
0.0204022
0.0449545
0.0425753
0.0442746
0.0605195
0.0210069
0.0220386
0.140027
0.140515
0.0358927
0.0220304
0.0201782
0.0347478
0.138787
0.0918866
0.0899831
0.0367992
0.0722734
0.0327873
0.00301174
0.00241118
0.00506514
0.0453723
0.08368
0.00347809
0.183268
0.00243694
0.00454873
0.0069174
0.00432189
0.00363719
0.00381538
0.00268734
0.00363691
0.12901
0.0365268
0.0380393
0.0201768
0.0355047
0.0639854
0.0627537
0.139373
0.1395
0.139296
0.0714767
0.0951591
0.0937065
0.0680386
0.065988
0.0636172
0.0308474
0.0308804
0.0668358
0.0649653
0.012504
0.013794
0.0153133
0.145595
0.150647
0.138179
0.13798
0.0483541
0.120025
0.116248
0.0311017
0.0333225
0.137588
0.137265
0.00401015
0.0616337
0.0609181
0.139085
0.138809
0.00910992
0.133925
0.0659733
0.0725937
0.0557104
0.0253713
0.0205562
0.00394547
0.0232192
0.0938489
0.0706058
0.0711799
0.0147501
0.0175895
0.0186348
0.00259568
0.0689103
0.069567
0.0608344
0.124652
0.125163
0.126133
0.0385923
0.0425801
0.0443565
0.0450479
0.0443473
0.0370393
0.105747
0.107411
0.0450337
0.0392761
0.0401259
0.0390312
0.0424495
0.0432899
0.00133911
0.112707
0.113788
0.115808
0.0140459
0.0129211
0.0444062
0.0443112
0.13671
0.136674
0.0250417
0.0276094
0.126571
0.127415
0.0385712
0.0390073
0.03812
0.231506
0.18776
0.0800839
0.0783535
0.0120998
0.0135536
0.121263
0.0414835
0.0428297
0.131409
0.130616
0.129799
0.0213838
0.0232582
0.138467
0.138181
0.043461
0.0424101
0.0432927
0.0287057
0.0266744
0.108073
0.107693
0.106603
0.0108827
0.0138157
0.0464135
0.0468956
0.014923
0.138073
0.138252
0.0410557
0.1269
0.123018
0.0167389
0.0624911
0.0657561
0.0350882
0.0354994
0.036649
0.138265
0.118375
0.103348
0.109822
0.115199
0.0209163
0.0740024
0.138205
0.0203894
0.00189853
0.00339515
0.0417992
0.0415232
0.015018
0.0705017
0.0359509
0.0333027
0.120536
0.132286
0.0430152
0.0449615
0.0191196
0.0634074
0.0675674
0.0135219
0.0415775
0.0408664
0.0647766
0.0047087
0.00475025
0.121651
0.0467627
0.0471999
0.0457859
0.0354231
0.0408019
0.0367142
0.0494688
0.0506453
0.00667556
0.0514697
0.0508583
0.0414082
0.0396427
0.0395938
0.00818635
0.00722817
0.0908039
0.0898212
0.0887834
0.0360417
0.0329774
0.0528701
0.046758
0.0486049
0.00351219
0.0340778