/*--------------------------------*- C++ -*----------------------------------*\
  =========                 |
  \\      /  F ield         | OpenFOAM: The Open Source CFD Toolbox
   \\    /   O peration     | Website:  https://openfoam.org
    \\  /    A nd           | Version:  6
     \\/     M anipulation  |
\*---------------------------------------------------------------------------*/
FoamFile
{
    version     2.0;
    format      ascii;
    class       volScalarField;
    location    "1700";
    object      p;
}
// * * * * * * * * * * * * * * * * * * * * * * * * * * * * * * * * * * * * * //

dimensions      [0 2 -2 0 0 0 0];

internalField   nonuniform List<scalar> 
29884
(
2.79243
0.0973326
0.519431
-2.66269
-0.162337
2.4627
0.112751
-4.39488
-0.836026
1.05834
2.80099
0.644316
-1.27505
-2.36867
0.0351008
-1.92119
-0.323746
-2.19642
-4.43096
-2.95708
-3.45986
0.53926
0.274072
3.37929
-1.5791
1.13305
-0.748394
-1.34182
0.323314
0.404534
3.10389
2.67756
-0.769147
5.28679
1.82404
1.68966
0.845241
2.98136
1.76992
1.01498
0.739905
-1.71212
3.04583
5.05017
-3.63426
0.519942
-2.25943
2.12675
0.596375
2.4375
3.09306
-0.307926
1.21881
-0.845623
-2.90938
4.33261
-2.69342
-1.67048
-3.7091
-0.635513
-0.313114
-0.796918
-0.315839
1.01124
2.06892
-1.96172
1.3289
1.56904
0.728633
1.43802
-0.432623
-1.16644
7.86882
0.689607
0.523116
1.48077
-2.77896
-1.3253
-2.60191
0.824533
2.12294
-3.28501
-0.329226
2.05334
-0.241702
15.1854
0.665537
-0.61757
0.171909
19.0004
0.55161
-2.32288
15.0109
20.3729
2.69161
24.6274
1.17137
1.28524
0.0356683
20.2924
1.54633
1.70488
0.162318
0.55534
0.36774
-1.86506
18.3386
18.8528
3.0899
1.63795
1.27704
24.6353
-0.0668523
-0.201295
-0.197959
1.89772
2.39398
0.0155905
3.83487
3.36168
0.811664
2.52162
2.08209
2.68993
-0.35595
3.5104
1.18825
1.46753
-0.722796
2.97044
3.18988
2.85295
-4.31655
-2.30301
-0.201422
-0.654035
2.19698
0.367157
0.347697
0.628871
0.358094
3.089
1.92397
-1.93953
-2.103
-1.87775
-1.54666
2.4502
1.94591
2.12736
2.65661
16.5465
17.947
0.727568
0.62468
1.01193
0.572846
1.17136
0.846747
0.625335
0.947529
3.42865
3.61618
2.73083
25.589
25.5007
-2.48376
-1.07973
1.01922
-5.92355
-2.84843
1.1905
1.21034
-0.377718
-0.222342
2.73454
3.0439
-2.91055
1.91152
1.76085
1.90798
5.3291
5.38398
4.73209
-0.158642
-0.10088
1.21394
1.0755
1.3211
3.19577
0.573301
4.26801
4.84701
-0.341959
-0.426251
2.54822
2.59469
0.674944
-0.0969287
0.0895571
0.292209
2.54516
2.43864
1.63332
2.49937
3.93284
0.113386
-0.273271
-0.391548
-0.765794
0.572151
-0.587897
-1.78074
-3.58023
-1.6361
17.8211
2.53359
19.6635
-0.16289
21.6754
21.9684
-11.1747
2.29903
0.133068
16.6241
22.0676
19.1845
21.5323
12.1932
-7.20173
4.80476
19.5938
18.1259
-7.22662
-7.56919
18.2856
18.4349
2.73526
-3.63826
-3.40836
-4.02659
24.368
18.3574
-6.45399
-4.26253
2.92651
18.5128
19.7577
-8.75513
-9.86769
-5.66036
0.559693
2.59762
2.4426
22.5571
22.2417
21.1916
21.5765
-10.7062
-9.7825
-0.597955
2.95362
-6.52756
22.906
2.18931
19.9205
-9.51829
2.22817
1.82654
20.0242
1.11582
1.25967
21.0239
19.5262
19.6309
17.6149
18.3557
21.2452
20.9583
-5.02429
-0.800631
18.3242
1.65585
1.41341
3.75551
2.85191
2.50426
-9.17618
25.7172
1.81039
22.1782
18.2934
18.273
-5.78144
-9.50183
-9.55339
3.07691
18.2719
18.3494
-6.02826
-5.15405
18.9555
18.8057
18.969
21.2269
17.4312
16.4125
6.53949
2.6181
2.85746
2.85333
3.13363
20.7907
-5.4204
-5.81332
-9.47006
-6.35436
18.7999
-10.7066
-9.79912
-10.334
20.2415
20.8022
21.0173
-10.2229
1.3069
20.0365
20.6188
20.6812
21.0582
2.14192
1.73129
1.70617
1.74855
18.4032
18.3445
2.19262
-3.85831
22.0823
22.0198
-7.41709
-3.22853
21.8811
8.04889
0.396945
22.2947
21.8673
22.0303
22.0604
19.569
19.2501
20.1827
1.16063
1.2616
0.849744
20.646
21.2236
21.3563
21.3486
21.2722
20.0816
19.1072
6.13781
0.407885
2.3563
2.21659
2.76205
2.64609
25.0055
22.8745
-6.63824
-5.79277
0.561696
0.686272
0.53174
2.93448
2.30439
-7.85875
-9.71622
-10.1431
-10.1541
11.7123
4.06248
4.03016
3.59108
-5.74035
-6.42406
-6.24605
-5.51759
16.4143
17.5832
18.622
17.0865
-6.83967
-7.35678
-6.871
18.4155
18.7402
-4.16224
-4.11382
17.7596
18.9113
16.2718
17.5789
16.6818
16.3897
19.4879
2.98939
3.20672
1.98805
2.26751
18.1597
17.9403
22.1317
22.305
22.5093
19.6451
-0.0489689
18.0334
17.5773
18.5248
-3.53835
20.6918
20.5461
21.4268
19.7014
19.1416
18.8867
18.4409
20.7372
20.3271
20.4695
19.9
-3.99919
18.2651
19.2215
19.183
19.4642
-4.54152
-4.99611
19.5133
19.1883
18.6984
18.947
3.84766
3.47221
4.01935
-7.14238
-6.0464
-7.54987
-6.90649
-0.359368
-1.56516
14.3777
14.2108
1.1549
1.20348
1.18755
0.948735
-1.24182
25.2067
6.65138
5.93109
0.296159
-6.8551
-6.46717
-6.93295
-6.37008
16.2966
15.3615
15.687
14.5634
1.53343
1.39895
1.54181
0.889182
0.932551
1.14376
0.724911
0.937752
0.865569
3.60803
3.39811
3.47585
3.88371
-5.99322
-5.43431
-6.033
-6.23199
2.91283
2.58615
2.77641
22.0726
22.2864
22.1278
21.5824
4.14537
4.92389
4.37688
24.4557
25.2446
1.34282
24.8876
10.8228
0.80556
0.777368
24.5541
24.4107
0.81717
0.844934
0.84926
1.30218
-8.40345
0.872272
-0.476692
24.7263
24.7563
2.30724
19.748
-0.0441137
0.954638
-4.17246
-5.88583
-1.86291
-2.0766
23.4704
-3.59962
-4.08051
-0.311823
1.94883
-5.59149
-0.026248
0.173134
0.185226
0.318463
-1.83038
3.12879
3.18948
-2.76031
-2.65607
-2.83335
-0.122952
-0.371988
1.17974
1.22422
1.03539
0.981366
4.66451
23.1684
2.27329
2.24848
0.0291241
1.09938
-0.427064
0.905665
0.97911
1.01443
25.1582
1.37596
1.31602
-8.46343
-9.38491
-8.34595
-2.36283
-6.4632
-4.9423
-0.401774
-0.354236
-0.375037
14.6338
13.8219
-3.02216
-2.65031
-2.3968
-1.71126
7.26113
-4.67454
-1.04716
-0.877961
-2.42974
-2.72899
25.0334
0.283105
-1.16077
14.4598
-0.201302
0.122063
25.6739
18.7487
19.3832
2.15291
1.05834
1.1287
-7.35113
2.33612
6.34286
7.11102
22.3105
22.1256
3.9545
4.46799
4.27061
0.990331
0.936225
23.4919
1.23643
3.50324
3.71964
1.83768
1.64331
1.50079
2.36716
5.65814
5.03695
6.21667
5.56907
2.78123
0.436268
1.59995
-0.83045
1.50723
0.230428
0.814394
0.937702
-5.57707
-6.68959
-1.5667
-0.175869
-0.555668
-1.05536
9.33259
10.5714
19.4699
19.8825
20.2805
21.4789
0.789747
3.01376
2.80635
0.652589
1.29422
17.4197
16.7248
-3.72235
-3.98621
-3.2583
1.98385
0.890555
3.13087
3.48492
6.88964
3.73274
4.37035
-9.98898
-10.4588
1.08462
1.25366
1.0597
1.28787
-2.60283
12.7848
12.0417
11.2224
1.58428
1.68466
1.79677
1.7604
1.89983
0.936513
2.88759
3.06427
-3.44286
-3.2945
-2.91922
-2.06568
-2.30655
-2.58995
-1.34055
0.563172
-1.94521
12.9536
12.0347
10.8866
23.3932
23.2868
4.9338
5.38332
19.8114
20.0474
-0.680569
-1.17327
-0.415195
19.5734
19.8797
8.24333
7.61919
22.8444
16.6859
-8.32066
7.25111
3.42759
5.44796
23.2703
4.52996
-24.8723
-8.67553
-19.1431
-1.86114
22.7835
-5.8913
-12.1202
20.1929
-23.3838
-5.57874
-5.70971
4.41352
4.54699
3.73361
-0.832676
-1.4001
7.0382
-4.50009
-4.89626
-8.59301
5.34393
4.77847
-4.95411
-4.17119
-3.80251
-1.37558
0.244411
0.00288303
19.2133
3.73443
4.45227
-3.27512
24.3794
17.4474
17.1242
23.4356
-16.6796
4.04908
-15.5211
-11.3631
23.7257
0.477259
-0.770381
3.03881
21.3408
-11.8401
-11.6423
4.69851
-3.41836
-2.4243
-3.68163
-2.1373
-4.30444
2.76529
13.6543
-12.5257
4.02605
18.8163
18.9822
1.84365
1.74607
-10.0708
-2.4428
20.5942
-7.82136
-8.81281
-1.52235
-0.457636
3.57698
-34.4211
-3.64643
-1.29594
2.58
17.5083
17.5782
6.05434
-6.60412
-6.83638
-7.59625
-34.7582
0.235208
-10.8191
-10.5341
22.543
0.954548
0.449453
22.8482
22.6679
-13.0921
-13.1536
0.251027
-11.9797
19.4878
-0.706001
-1.29437
2.10921
-7.4801
14.5356
-0.338017
-0.58539
-10.1416
-3.97193
-2.79795
-7.85188
25.2694
16.1725
-11.8724
6.17446
5.80671
16.908
17.0874
-4.4847
-4.15908
-13.876
-25.1754
-6.07541
-10.3044
-10.4653
19.8244
-3.49379
-13.1502
23.5655
-18.3843
1.80563
-5.58783
-5.78135
3.05504
2.97742
-0.192398
16.3314
4.07575
-25.4633
-12.9554
-13.1373
2.77785
-10.5228
-2.13518
-0.643014
-14.1643
-14.4188
6.39336
16.9658
22.1721
-3.61747
2.26983
1.95906
16.5781
16.5
-2.20728
7.65844
-1.57621
-1.46793
-6.4483
3.45527
0.551244
0.11367
8.20787
9.37243
19.2782
22.5465
22.7619
22.7317
-3.39798
-2.17571
-10.3129
18.1273
18.3238
13.5054
0.709754
15.7836
23.0985
15.1768
14.6868
-7.70505
2.10658
-1.1678
16.247
16.1993
-4.84851
0.976527
-11.6309
4.48158
-12.1344
5.05861
4.90698
20.1802
1.36278
-16.4526
0.701892
-11.3082
-0.913768
-0.0166611
16.2906
15.9086
15.7471
4.82402
4.23923
1.9996
-8.90512
-8.98426
16.8908
1.89486
1.50897
1.26158
-0.17612
-0.537135
3.29343
-9.54903
-10.4115
-24.824
-3.62664
-3.0703
-2.9024
7.951
7.74111
5.68352
6.0126
-3.906
-4.32557
-14.2739
3.5263
-2.55688
-2.85104
-11.947
6.95983
-22.3876
16.0302
-11.4513
-11.1855
-20.3161
4.26685
-12.3342
1.47762
1.79376
-12.5066
-10.8064
0.197192
16.7365
-17.0083
4.38408
4.78116
-11.8345
15.225
-10.99
24.5994
2.6842
3.1398
4.09766
2.20619
2.78602
0.284613
0.498155
1.62669
3.29485
-17.8498
-16.6276
6.07428
2.19511
1.3977
-0.152442
-1.74085
-2.08326
1.86117
-8.41683
-9.5235
4.81636
4.50215
-4.55212
-13.31
-13.5951
2.72497
3.01213
24.3471
-6.7474
-6.34678
-1.96243
21.9708
-2.52213
-2.21092
-5.78409
-5.5837
1.48378
1.74185
2.58295
17.7929
18.2951
-11.1786
-5.19166
1.6917
-11.1394
-10.9572
-11.274
19.2261
18.9606
-11.9675
2.42834
-19.1896
-19.5526
6.23106
5.75466
-12.1011
-11.9116
-12.1403
16.2404
16.4698
-5.68082
-11.9063
-3.57291
4.84089
-7.66201
-7.81317
18.6148
-11.9521
-8.26732
-10.0185
4.86784
23.2681
0.256011
-0.347798
2.90022
2.33139
-16.0799
-12.1457
-11.5898
-10.0458
-9.22568
2.30234
2.27449
2.16436
-13.213
-12.4109
18.6556
-4.6045
-4.31153
1.79294
-8.24814
-8.00375
-4.17512
-3.61711
1.98407
16.2936
16.2299
-12.9742
-12.4165
4.08268
4.40666
3.94518
4.85101
5.56364
16.3634
6.55343
23.2541
-8.78003
-9.1755
-8.57932
-8.50842
-7.60844
-8.69555
-11.7977
-11.9081
-1.06745
-1.09136
-1.28853
-0.533172
-1.94008
-6.15122
-6.53847
22.9319
18.9505
-12.1831
0.480115
0.43497
0.0282861
12.896
-0.300836
1.98231
2.26029
0.578449
0.725461
1.03036
2.20742
2.98554
17.0515
16.6853
16.8101
17.1482
-2.87977
-3.4577
18.7125
2.92584
2.888
3.12896
-0.0568887
2.22634
17.9573
-4.87016
-4.34232
17.847
18.2494
17.4835
0.669179
-2.63942
-2.41264
-0.597706
1.52857
1.91843
-0.811111
3.1052
16.7391
16.8006
16.5747
-7.87185
-8.46979
-7.61967
0.718257
16.7132
4.48134
3.81103
-0.643334
22.4453
7.51877
7.36381
7.5244
-10.2903
18.9835
-12.3351
17.4021
17.5932
24.1166
25.6159
2.33462
-4.63654
2.50241
-5.12743
-4.74842
-0.247686
15.7512
0.13484
4.40707
-20.3119
-0.263585
0.0830638
0.29806
17.784
2.28123
2.27838
2.35182
4.0502
4.83067
23.7544
17.5063
17.6969
-0.661223
-0.423751
-0.0602397
21.6877
22.3515
3.00853
18.1707
18.3594
18.2671
17.6865
17.4282
17.6436
1.80391
18.557
18.6616
-12.2166
24.1009
3.62486
3.9608
-0.161651
-0.115323
5.15773
0.247857
-0.205472
-0.696976
2.16163
2.07333
-9.35691
1.07081
1.35639
1.4211
-0.0107483
0.349178
8.11342
2.14444
6.67348
-2.76752
21.0896
22.6713
-1.37141
24.3245
-11.4671
3.86728
16.4344
-5.64261
17.7717
18.0602
14.9441
14.8913
1.34829
0.631068
-2.32568
-2.19177
-2.39737
-0.681554
-0.287527
-0.541678
6.6093
6.39508
21.1754
21.7796
24.5728
-1.46387
-6.40349
2.80324
3.01766
2.97651
3.41747
3.58473
16.383
16.2241
1.39342
1.34759
-1.19147
-0.178492
-0.36857
-0.797353
17.9032
0.531464
1.41634
1.7394
2.15437
1.61192
-13.8694
-14.3156
-13.8007
24.6199
17.737
17.1197
17.8972
18.3611
5.9311
6.18918
20.8062
1.75094
1.97412
5.96286
-10.1603
-10.182
-9.21206
16.8185
16.8085
16.6463
-9.74826
-9.93217
0.320281
-12.4348
19.6477
19.5839
13.8412
13.6807
2.31958
2.50432
2.14604
1.98646
4.79672
4.6041
14.8036
-10.6765
-11.118
-11.6577
3.0158
2.63406
25.6322
18.6182
18.5284
-4.61481
-4.87341
24.9515
22.2766
22.723
22.8388
22.8741
-3.76008
-4.20099
-14.9926
-13.4613
-16.8283
-11.8374
22.5594
-7.95146
-8.17751
-8.28552
-10.5178
-10.2615
-10.2115
-9.33197
25.0787
25.1929
22.9359
22.7955
24.8011
22.3179
18.4185
18.1202
20.9802
-7.63757
23.6941
1.7423
1.53836
1.73356
2.85196
2.84405
2.37842
1.08563
1.26243
1.57185
2.07697
5.38518
-10.0039
-10.0876
-9.47135
16.5706
16.1106
16.5472
1.0095
1.28208
0.923643
1.90023
2.06265
2.30336
7.98367
3.09442
3.39549
3.23965
-1.37025
-1.01488
-12.3992
2.95442
2.37243
2.52503
25.1347
24.9412
2.23172
2.25273
2.54389
2.8502
-11.3234
1.45968
1.38124
0.693766
1.47305
1.90019
1.98248
1.79072
-2.70706
-2.50793
-2.86146
-2.35955
-9.87359
-11.9167
-11.8317
-11.7866
-11.8371
18.3051
17.5302
0.470657
1.19491
4.31503
3.41346
-17.5165
7.94384
-11.8141
-12.6958
-5.9189
25.4084
-11.5085
-12.0657
4.19417
4.76698
3.40524
0.525698
0.70114
23.1143
-7.69979
-7.71646
-6.83242
-8.7019
-9.05554
-8.75632
-10.6027
-10.7026
-10.7047
-5.3887
-5.66148
17.8123
17.4505
-0.0393993
-0.167441
0.501373
25.348
20.4228
23.8431
13.9725
-11.8276
-11.9506
-10.9978
-11.8526
-13.9275
17.5707
17.3184
17.0989
-7.60668
-6.81543
-7.3784
-6.6696
-11.4976
-11.2598
-11.4525
-11.5376
22.4996
22.8363
22.408
22.387
-8.97722
-8.19817
-8.87767
-8.21973
13.7688
-5.86486
2.21911
2.09763
1.84026
2.18056
-2.34651
-1.9218
-2.09321
-11.7108
-10.7603
-10.2907
-10.8968
0.498777
0.652628
1.04417
2.04876
2.15404
1.88752
1.84981
1.51623
17.456
17.8845
17.3836
16.9858
2.24865
2.11794
2.09535
2.14688
-9.64512
-9.90834
-10.0999
-4.69558
-5.46277
3.46949
3.80949
3.18521
-13.2578
-13.8256
-1.60822
-1.45379
1.17615
1.65615
0.658868
1.22907
0.360113
-0.230633
0.313044
-5.9763
-6.20163
-7.0981
-7.47191
-6.98365
-6.9116
15.8238
16.0768
-1.35089
17.6643
17.6622
19.6448
0.59923
0.924398
1.28161
1.00543
17.6223
-3.48322
-2.67419
-2.60892
-1.99012
2.61502
2.27478
16.3765
16.6144
16.2173
16.4323
-4.04162
-3.64911
-4.47848
-7.22732
-7.63059
-7.73073
17.6999
17.4493
18.2614
18.082
-8.03334
4.92673
15.7588
-8.05071
-8.35058
-7.07629
-8.04226
-23.0934
5.97971
-22.637
-22.2014
3.59972
3.894
3.15921
3.36949
-2.59592
17.5172
17.8006
3.73155
3.50869
3.96586
0.0842592
-0.228968
-11.9771
-12.027
-11.9406
-9.20995
-8.89981
-9.15297
-8.71328
19.2962
5.68768
5.59189
-5.73516
-5.95248
16.7945
16.9703
16.8293
19.7334
-5.32544
4.71214
-0.97434
-1.25184
-1.06201
1.00425
-10.0472
-10.5477
-9.5645
1.39674
1.51287
1.17907
18.2378
18.3257
2.68533
2.31044
-8.06443
-7.78791
-8.53563
4.88477
4.58289
5.0405
-6.92842
-7.1648
-6.87144
-7.21643
-7.41551
17.8258
17.3006
17.6037
-4.41138
15.5064
15.2453
-2.2183
-2.36261
-1.23916
2.15018
1.51107
-12.4201
-12.3716
3.78388
3.48291
19.0101
18.5545
4.3839
4.12642
2.86181
2.44791
1.3639
1.39187
0.803624
0.828949
1.29367
1.28837
17.7453
17.5256
0.182363
-0.372798
-0.54467
-0.184492
-1.24455
18.2622
18.0821
17.9683
22.5682
22.6834
22.3221
22.6915
17.025
17.9426
17.9517
17.7865
-0.272107
-0.764593
18.7692
18.8874
3.10256
3.12497
3.56751
3.46452
3.32027
-12.2803
-12.2106
-12.1975
-12.0941
20.2402
2.53126
2.34628
19.4196
19.2712
18.9711
19.3533
-0.688479
-0.640581
-1.1146
-5.99938
-6.1774
-5.71865
1.46571
1.96082
0.96223
17.7869
17.8737
18.0204
18.1535
-4.45969
-4.14776
-3.82882
14.616
-13.4105
-13.1265
-12.6415
0.00926511
-8.19183
-9.12009
-8.66036
-8.78813
-0.589294
-0.856717
-0.030297
-0.443537
2.62052
-10.8284
-10.8059
-10.3051
-10.74
2.63293
2.24383
2.00144
1.84245
1.63697
1.63472
1.93475
1.65272
1.32241
23.2001
17.7722
17.8706
-12.3874
-12.3871
24.3741
-6.24793
0.194387
-0.299099
-0.958964
-0.649694
-1.84339
-2.35979
-1.69002
-11.8316
-11.3369
-27.2816
-26.4162
15.642
15.9685
16.172
16.3416
4.53377
2.5807
2.31193
2.68802
-25.7136
16.385
16.5226
15.8233
15.9699
-9.40116
-9.07118
-8.77767
-8.12677
0.73683
0.788194
0.684155
4.52812
-9.2358
-8.97287
-9.30048
-9.33392
-14.4423
-13.8451
-12.399
4.63881
4.41346
5.39881
18.2164
17.8103
17.8243
17.785
8.96834
8.94541
-3.12697
-2.1831
-1.71835
-1.81052
18.8173
18.5697
18.4028
-8.95635
-16.1908
-17.6057
19.1072
18.9492
4.71659
4.68813
4.92163
2.23806
2.20711
2.39769
-12.5906
-12.7884
-12.5837
15.9518
15.6463
15.8293
16.3121
22.5346
17.6458
18.0103
17.455
17.677
-5.69628
-10.9896
-5.32216
-5.74718
-1.67522
-1.50293
-0.591028
-0.82072
3.03503
2.24303
2.12219
2.07715
2.55925
-1.08288
0.00621024
-0.741121
19.7353
3.21763
3.0768
3.16532
-1.81304
-1.04046
-9.35134
-9.4976
-9.42937
-11.0304
-10.4746
-11.0533
5.8877
23.1085
4.3642
21.7672
21.8527
2.09981
1.58682
2.19038
-5.86821
-5.81205
-6.08715
0.484031
-11.4724
-11.7656
-11.5999
18.6993
19.0041
1.387
1.04458
0.82518
1.12617
4.11346
4.15477
21.7764
21.8293
1.36059
1.03551
1.64278
1.47498
2.21576
2.53029
18.6549
4.21332
4.39171
4.16145
-1.48646
-1.003
-1.43739
-21.2062
-8.04315
-8.59277
-8.76318
-8.29562
18.5845
18.1144
17.9739
18.2818
-5.95952
-6.94314
-6.39711
-11.7076
-12.9647
-16.3233
-13.1224
-18.794
-0.0585877
-0.220361
-1.2876
-1.02994
-6.92435
-7.48211
-6.93676
-6.14232
3.56579
3.35738
2.73549
3.0687
19.6152
15.4318
15.134
15.4388
-6.91104
-6.50592
-6.75982
-6.96976
-14.3833
-12.9328
-10.3474
-10.1964
-9.4781
-5.49214
-5.14203
-5.3865
-4.46514
15.6108
15.836
0.57962
0.534013
-9.69104
-10.1299
-10.1049
-10.1367
0.938998
-6.37242
-6.01354
-6.31419
-6.08567
1.96465
2.14397
2.10453
22.8297
17.7544
-11.8513
-11.306
-11.4023
-10.7112
1.25258
1.49944
-10.7255
-10.6977
3.43
19.07
1.79329
1.51508
0.446334
-5.69535
5.41097
5.12075
5.24223
-7.16306
-6.47634
18.9894
-10.4213
-11.6333
-10.8233
-13.7515
-0.217475
0.182681
-0.120762
21.5609
21.5132
25.7215
-4.99087
18.9126
2.25799
2.35778
1.83468
2.16197
-0.544871
-0.0432279
0.693672
0.324268
2.20494
2.23442
2.31982
2.31021
-10.8073
-10.189
-9.64278
-10.4846
2.09567
2.00888
3.1256
2.16637
-7.6509
-7.14284
-8.2191
-13.7183
23.2721
-7.96786
-11.5977
-11.1257
1.0543
1.033
20.4732
-15.3471
2.23069
2.66462
2.37403
19.5014
-0.372625
-0.762115
-0.238113
0.407206
3.77385
1.05329
0.584408
1.49653
1.78423
21.719
21.8531
21.1533
21.453
1.77684
1.88447
2.03538
1.51026
-0.599917
-0.935409
-1.25925
-0.831253
4.0888
4.29867
4.43224
4.05719
18.5993
18.5579
17.8897
18.2267
18.1304
18.2923
-9.01891
-8.15364
-9.10989
-9.48949
-0.058853
-0.182957
-0.487792
6.30491
-12.0728
-12.1121
-11.9496
-11.7197
-11.7125
-10.5292
-12.0513
-12.7953
-13.1874
-13.4857
-15.8547
2.16966
1.66893
25.734
18.2543
17.9443
17.8159
17.5884
-14.697
-13.7296
-13.3798
0.605352
-5.48483
-5.83492
-5.29575
-11.5528
-11.6665
1.96118
-11.1435
-11.092
-3.44105
-4.01774
-4.36099
-9.68582
-8.68798
-8.54248
-9.37639
-12.1952
-12.2564
-12.1353
7.92859
6.99488
-9.01536
-8.13661
-8.6595
25.7464
-8.5773
-8.25475
0.953183
1.04978
-0.10478
1.00829
0.840424
1.08608
-13.5493
-12.2899
21.0477
21.2655
0.488732
0.971045
17.908
18.0436
18.0198
18.2902
-5.28609
-11.0138
-11.0003
4.72993
4.85661
4.18114
4.76096
0.478368
0.464531
0.875529
0.608305
0.244524
0.331136
0.768891
0.548573
-0.857826
-0.768649
-0.905911
-12.8242
-12.5505
-11.7737
-12.36
-10.4637
-10.6536
12.7836
-8.23899
-8.23687
-8.28389
4.85701
18.7832
18.9962
18.9378
-1.23522
-1.36072
-0.100818
0.0618087
0.0348447
0.479531
-10.1395
-9.56189
1.48239
1.70904
1.1288
1.48281
1.32245
1.76331
1.81974
2.09527
18.0942
18.063
18.5431
18.4125
-12.2578
-12.2736
-12.2245
19.2755
19.0318
18.6428
18.9498
4.69245
4.79712
4.45332
18.653
1.86162
1.41651
1.44423
1.37788
-18.1183
-16.0235
-19.6887
24.7481
-3.75489
24.9531
25.1425
25.2072
23.1468
-14.6293
23.0862
23.7411
23.7993
23.2961
25.7763
21.0412
25.5373
25.5674
24.7492
24.7905
-11.7792
22.1839
22.1349
0.426122
24.0582
-6.25562
21.7976
23.3272
23.3353
-6.81433
23.9666
0.634707
24.5524
23.6311
23.5682
21.4558
-1.20898
-0.117526
21.2887
21.1551
-16.436
24.9348
1.20064
1.9998
-1.22547
5.78361
6.73453
-7.35229
25.4402
22.7223
25.6859
25.6321
25.5837
-15.3108
-15.8409
25.2064
-15.7653
24.0215
23.9097
22.7122
24.2959
-4.30729
-16.2498
0.386505
0.509481
25.7944
-19.1573
-19.6637
21.8875
-26.546
20.9462
20.9444
20.9297
2.61761
2.49773
25.1934
-0.69421
1.25965
1.46331
-19.1843
22.984
22.9962
25.3801
4.34219
23.953
22.2908
25.4592
21.7874
22.9214
2.53092
23.8859
19.1643
19.1988
0.540428
6.64953
22.7461
17.5666
23.0672
24.9921
2.09176
20.3665
25.2074
23.1399
23.1871
25.0669
24.3013
24.2388
23.6144
24.0023
23.9226
21.436
21.3101
23.1749
20.2237
23.8404
20.0042
0.719173
24.2777
11.1981
20.8909
-1.18488
24.1056
23.4922
23.6512
23.7124
6.17485
21.2207
21.1043
-27.0675
25.5665
25.5815
23.9278
-0.471919
-0.489125
-21.7709
23.7597
-28.2171
-27.2828
24.2981
17.7395
17.9521
-1.32882
18.8377
0.0827026
0.0251674
18.1309
22.5876
23.1558
-0.665091
-1.10293
23.2587
22.2618
3.75942
21.0212
24.8668
22.3265
19.587
22.6038
21.3754
-10.2932
-10.5023
-10.1422
25.2582
23.3377
-12.4133
-12.4904
4.00159
3.84799
-14.4228
-11.8495
-11.3787
0.649907
24.6754
24.3324
-6.37314
1.28454
23.0925
22.9726
23.2595
25.0397
24.9637
22.8934
22.7325
23.9177
25.0708
22.6945
22.5206
24.3451
24.2695
23.6195
23.6117
4.72463
22.3832
22.1445
23.309
24.8359
24.4119
21.7363
25.4595
19.4234
19.6064
23.2878
23.2135
23.4647
24.3697
21.5731
21.4395
1.53043
22.0255
-0.300907
-0.429162
-0.422046
-13.4082
-2.60494
24.0653
-17.7906
23.5791
2.10019
19.7638
25.3319
22.6811
22.5215
22.5906
24.6751
23.8101
0.951636
10.5676
9.755
22.1705
22.3254
-1.11934
0.834673
-3.54155
-3.3013
23.5225
22.3013
0.234365
19.284
19.6672
24.6789
23.1781
-22.3636
7.83085
7.20251
22.7679
-4.8888
22.5755
22.3507
22.3898
25.3705
-6.69003
-7.73187
-7.54626
14.8284
23.2743
-0.666769
-0.960351
3.75641
0.29208
-20.8311
19.6582
20.1126
0.802912
0.669945
0.507863
20.6427
1.66627
25.5447
25.4892
24.8133
22.8956
-23.5635
22.7726
22.8053
22.8723
22.9456
22.5609
24.1514
24.2246
-2.14056
-6.50488
21.5764
8.59389
3.13297
3.15201
19.8113
-0.775196
-0.925201
-3.28836
-3.70935
25.2172
-26.2234
-1.04164
-1.50615
23.1321
23.2612
20.801
20.7182
0.0524577
-0.15986
-0.411739
-0.708603
22.6351
-8.03619
-7.76399
1.18221
23.0512
23.0046
7.67679
23.6468
23.2107
22.455
24.336
20.309
23.3837
-2.08695
22.0559
21.8389
-18.4862
4.65797
20.3365
-18.6057
7.75286
8.38666
7.64326
-18.4648
1.87858
4.72852
-4.91509
20.2268
25.1629
23.0937
23.3848
23.2512
-2.20128
23.0855
23.1189
20.6331
-5.1563
-7.40555
-6.03634
20.6665
19.6433
19.5198
-0.509673
-0.239519
-13.9804
21.58
21.5046
21.8856
21.3042
-0.874373
-1.31761
3.39084
3.0743
-1.39564
-1.17273
0.660686
25.005
25.0648
2.00657
24.2495
-6.64182
-1.62167
-1.47803
-1.19066
-11.27
-10.8725
-11.0555
0.104573
-4.17187
-4.74836
1.72832
0.89984
1.02987
0.156289
2.37437
-4.08233
-4.00395
24.2847
24.2548
0.377361
21.4928
-10.5809
-10.8685
-9.42317
-2.43651
22.5479
18.5728
22.3365
9.72507
24.8191
20.5635
20.5477
0.802705
0.816886
0.977177
21.1564
21.1059
24.6838
0.251643
22.0843
9.77794
20.5052
20.4739
19.9883
0.533665
-1.65778
-9.01109
-9.25034
-4.60642
-5.14317
24.1771
24.1115
1.34178
21.7978
23.4258
24.5683
-0.45955
-0.896906
0.692272
-5.30275
0.600159
1.53876
1.40055
24.3246
20.7768
2.44458
2.34492
1.78019
2.16173
-4.41418
-3.32692
3.09335
3.11754
7.97896
8.76377
25.4389
0.595498
0.245413
-1.82369
0.155442
0.219922
0.221879
-0.820299
-0.378808
0.633077
0.546489
0.314487
-0.854654
20.5042
20.39
19.6806
-7.14844
-6.85474
-7.61706
-0.923802
-1.10246
-6.34197
-9.64344
-9.91838
-1.93588
-1.49856
-4.26325
-4.42511
19.5285
19.5692
24.9724
24.2415
4.03651
-6.31329
-6.49517
-6.46842
-0.750858
24.1417
24.0404
-2.97289
-2.46946
22.1936
24.2409
22.7551
22.6621
24.9776
18.8012
18.9986
18.8224
0.815723
0.707294
22.0059
24.6628
24.6189
24.8838
24.8561
7.37886
8.63265
-8.26315
-7.31221
-10.8645
1.73892
-8.86361
-8.38017
-4.71665
-4.94929
-5.25484
-5.77664
-5.831
-7.86359
-8.30469
21.8594
21.7711
0.52348
0.609645
-0.840089
-6.1574
20.4005
24.5839
20.4431
24.586
22.555
22.6996
22.6284
25.041
-6.30075
-2.90515
-3.23013
-3.48695
-3.46551
-3.15823
-3.00171
-13.1022
-13.503
20.0381
6.98051
22.3806
22.0197
7.4098
21.1111
-12.3396
-0.0923699
23.9378
23.7367
-0.603836
-0.642228
20.323
-6.99765
-6.9159
25.0098
-10.4401
-9.71754
-5.11893
18.5677
18.5651
-2.42348
22.5573
24.6706
18.632
18.6525
19.9602
19.865
19.6223
0.435629
0.525903
0.401457
-6.89015
-1.07586
-0.816852
1.34795
0.928353
2.558
2.08639
2.21611
19.6571
19.4541
19.4911
-4.15184
-1.0935
24.3291
0.864739
0.870104
0.907348
1.63511
-11.2904
18.4845
19.1231
18.7854
19.4533
-4.15823
18.0343
17.932
21.3045
20.9109
18.5794
4.97518
15.5065
15.0042
14.5227
23.3844
23.2781
-3.77738
-4.04648
-1.57997
-1.49881
2.60376
-5.7353
2.05246
23.143
25.2209
25.163
1.81967
22.5363
-0.468431
-15.2858
19.0066
18.8043
18.7507
19.887
20.045
5.0538
-6.17682
-6.02988
-6.05542
-0.233549
23.1564
24.4898
24.0915
-0.304587
0.682204
3.14097
3.38477
18.1361
-0.796605
-1.35068
24.0247
24.0257
22.3835
22.4802
22.25
-0.545212
23.8909
23.8749
0.855223
0.107653
17.7702
22.2855
22.2337
20.2755
0.918224
2.18769
1.81075
19.837
2.64923
18.3798
23.2279
19.0884
19.2827
22.2851
-0.605505
23.0247
-3.54044
25.0998
20.183
20.2384
25.3429
25.3789
25.3904
25.0386
22.9141
1.6626
22.8141
22.9508
-9.82741
19.5522
1.85715
1.00673
1.09659
1.00075
1.14321
-1.75455
1.87006
1.76944
-0.787379
-1.18244
-1.44125
20.2859
20.222
-2.40361
-2.64609
-6.50315
-6.71261
-6.78854
-2.04545
-1.92376
1.5137
1.57104
-4.70233
9.51566
10.4505
17.6153
17.4485
1.89084
2.09819
-5.92618
0.774776
0.222192
0.769745
0.745366
22.0012
5.27896
17.7322
17.2743
-3.98211
20.1001
-17.9133
24.9575
0.293419
-0.501573
2.04481
2.25947
-5.25905
-5.32165
-5.05365
24.2095
15.1097
15.8444
16.4229
1.56458
1.33627
1.18178
23.0194
18.9407
18.5992
18.5057
18.4593
3.03909
2.26178
2.25118
-7.97022
19.3674
19.3305
19.4354
18.1368
18.0733
25.3477
1.17586
1.45763
1.20177
-8.21626
-8.08515
-9.5939
-8.87571
2.71981
2.89564
18.4646
18.2381
2.90516
2.97881
19.1744
18.9608
19.0168
-3.48198
-3.11417
0.532123
0.425334
19.2697
19.3825
0.381159
-9.61519
-10.0639
1.77663
1.56395
1.92668
-8.572
-8.91508
0.715215
0.665272
18.7321
18.9824
18.7001
-8.12916
-8.13275
0.119763
0.351288
0.00770662
-4.23973
-3.91408
-11.3507
-11.5953
22.668
1.62701
1.49563
-13.1963
4.72769
5.06499
20.8862
20.8542
20.3954
19.0531
19.1883
23.0408
1.46864
0.490024
0.223846
0.820666
0.984958
21.7761
3.20329
-0.190528
-18.3048
11.6158
12.1143
-7.88709
-7.70496
24.6457
-2.00119
5.58257
5.53604
3.8362
-10.4607
17.2648
16.8011
-9.72861
20.2382
19.8913
21.8977
18.5127
18.7709
-2.18352
-5.89379
-5.97409
3.16584
17.9223
17.9817
18.0331
19.3909
19.9026
20.0539
21.6098
21.7099
-4.1264
21.9738
21.8666
17.8113
18.4322
18.4318
24.8213
24.8781
1.59716
1.54529
1.44044
0.932662
0.338537
21.1052
21.5719
21.2647
25.3341
-12.0171
2.01253
2.02163
2.49235
2.60681
21.19
3.74085
3.14557
3.29553
-5.92103
-3.46628
-2.33667
-6.19432
-6.3081
-0.0228564
0.0831487
-4.7351
-4.12956
-10.8342
-10.496
-10.773
1.19473
17.2341
17.6319
-0.372226
-0.554388
-0.0645148
19.0352
18.8303
18.7201
-1.33356
-1.23047
-1.47453
-10.6933
-23.6968
4.89918
5.05243
-10.9617
-10.6637
0.9127
1.27483
18.6365
-10.2179
-10.179
2.56628
2.44225
-0.117284
-0.0736573
6.13898
6.72273
7.69761
19.8918
19.857
-14.7318
18.6319
18.7693
1.63405
0.676773
1.07649
1.22537
0.628062
-4.7641
-2.87938
-3.77326
7.31955
8.10947
9.49325
8.98202
19.9101
20.1677
-1.3694
-1.48587
0.99379
1.20128
23.0152
25.2867
18.6103
18.5385
20.939
-5.35546
-5.03039
-4.96965
-0.832403
24.5273
16.8601
17.0004
3.2127
3.0412
20.9895
20.9947
-10.3077
-10.3654
1.37019
0.73269
0.471036
20.145
20.2802
4.11371
4.51592
19.4206
19.5255
22.6406
22.4833
-22.2562
0.218188
2.24155
2.1456
-3.16901
-5.21477
23.5628
-16.376
-3.9019
-10.0134
-10.3273
-3.63472
-2.91285
-5.52424
-5.48486
-0.623121
-0.549289
-0.998026
2.58897
2.81689
0.131235
0.639452
0.42007
24.0666
23.2777
25.4074
22.0492
22.1371
21.6128
22.0733
1.3595
1.86704
1.41389
-5.06329
-5.04165
2.67143
0.521782
0.381351
0.43609
-4.24411
-4.16998
13.9415
21.7566
8.10738
18.1292
17.8113
-13.2794
7.96425
-1.23476
8.9203
-25.5301
11.8724
-12.2043
-14.2619
-11.941
4.88796
5.37076
8.22507
6.23051
-11.9774
-9.05286
-8.65814
7.78066
8.8042
9.02436
12.1171
13.9765
-5.79824
-8.24897
7.02187
4.44591
8.8343
3.11529
-12.0678
-12.1712
10.952
11.9877
3.53382
-18.5342
-22.6623
-9.90139
12.4025
-8.11075
3.15981
11.0662
11.152
6.19471
6.2459
-7.58384
-8.06178
-9.13698
-12.6145
-12.5086
1.06664
-1.40956
12.5193
12.7515
3.17335
2.65237
14.0696
-10.8171
13.0887
11.2435
1.03966
-2.84967
12.317
6.09843
10.8639
2.22075
14.2194
19.5557
5.69661
9.68285
7.39376
2.7898
9.71803
4.07128
4.40113
7.29056
7.17683
-14.5398
-14.7969
1.65517
-5.05485
-20.6023
5.92084
-5.7132
-8.26067
14.4325
-0.0868987
12.2807
-0.585771
-1.57719
-12.5545
-15.0142
-9.30302
-10.57
0.341669
-12.0707
-11.9711
5.23424
-1.97531
-2.98764
-1.73547
-0.237136
0.963444
16.3502
-9.51246
-2.93035
-2.02456
-17.9969
22.5847
-4.76638
-30.3425
-23.4501
-26.507
3.15307
-13.9001
-15.4023
11.7505
10.7485
-9.02935
10.4782
-8.61075
-10.1888
0.38773
0.331583
0.307649
0.0957625
-11.5126
1.13414
3.74702
-4.72794
10.9567
-0.542278
-1.64265
-15.48
16.2771
7.2982
10.6536
7.21761
7.03899
-22.0015
-12.3416
10.1679
-18.8828
-6.12666
13.9124
14.1914
11.8145
12.7953
-15.3025
4.25247
2.02552
1.11729
10.4356
10.1871
8.95963
8.40108
9.09685
4.71206
11.7171
6.41145
-5.09099
-1.78896
-0.44164
-1.69798
-20.9642
15.9405
-4.16871
4.417
4.67617
-11.7486
-13.0407
23.1793
-18.6537
-20.1134
17.3321
12.6782
-5.67915
2.3729
-5.53007
-6.0276
4.69274
12.2617
0.671791
-13.069
1.91086
0.882332
2.26112
3.01375
16.1962
16.1488
-15.9366
0.796037
-5.97289
-5.78506
2.17901
-7.31787
-11.241
11.8615
-0.17747
0.687537
13.9812
13.9142
7.52878
8.00006
2.444
2.87459
-0.625369
-1.15211
-1.58313
16.1221
-4.91781
16.8483
16.5822
17.0028
-9.23666
-9.73534
-10.8917
6.37533
-7.45773
13.7325
-7.20181
-6.18523
-7.52989
4.92688
-27.1012
-7.94415
10.0594
11.1102
10.751
13.7754
13.0586
12.525
10.0485
10.0213
-12.9003
6.79116
12.0658
11.4535
-7.25477
-28.0224
10.8055
-25.9349
-20.8379
3.28001
4.04947
5.07292
5.58063
-18.4163
2.10116
3.13241
3.89779
12.4162
11.5659
1.24065
-2.16284
-2.77848
-0.909924
-0.304247
-16.9589
-15.7591
2.14888
1.17554
12.8544
11.6015
11.2391
4.67273
5.38523
9.58487
8.46386
6.68293
9.25596
8.86237
8.05504
8.26935
8.5008
10.5025
2.94533
2.71697
2.65792
-4.68168
14.4324
7.91914
8.41687
12.2819
-5.93343
16.2466
0.0631602
0.231848
-13.1363
-2.82664
-2.11586
-2.87448
-11.5155
-11.2936
-0.10052
3.54614
2.80834
-3.05218
-1.95094
17.228
9.20399
2.58216
3.45182
-4.4572
-14.203
8.04742
14.7176
14.8191
9.50161
9.19198
-0.516463
-1.10916
-1.72589
-1.04444
-0.451729
5.08567
13.4145
12.554
4.54292
16.6377
17.0133
17.0034
13.4265
13.6348
5.87415
12.936
4.59602
5.09235
-3.2892
-2.25939
11.7415
10.7754
2.45884
3.21835
9.73923
10.4833
-7.53139
1.33346
1.46024
1.41389
5.61877