/*--------------------------------*- C++ -*----------------------------------*\
  =========                 |
  \\      /  F ield         | OpenFOAM: The Open Source CFD Toolbox
   \\    /   O peration     | Website:  https://openfoam.org
    \\  /    A nd           | Version:  6
     \\/     M anipulation  |
\*---------------------------------------------------------------------------*/
FoamFile
{
    version     2.0;
    format      ascii;
    class       surfaceScalarField;
    location    "1700";
    object      phi;
}
// * * * * * * * * * * * * * * * * * * * * * * * * * * * * * * * * * * * * * //

dimensions      [0 3 -1 0 0 0 0];

internalField   nonuniform List<scalar> 
44611
(
1.52093
-2.14274
0.621816
1.52093
1.44609
-1.44609
1.93944
-0.493347
-1.31919
-0.707737
2.02693
-1.31919
-0.0920815
-2.17074
2.08645
-0.565527
1.29392
-1.29392
0.18063
1.85448
-2.17628
0.730191
2.37679
-0.340671
0.413103
-1.73229
-0.795636
-1.19874
0.795636
1.29082
-0.552149
-1.33589
0.552149
0.741769
-0.59412
-0.824373
0.824373
-1.17128
1.35191
-0.0104509
1.28965
-1.2792
-0.136976
-1.86044
1.99741
1.52237
-0.214962
-1.30741
1.21981
-1.21981
-1.09966
1.09966
-1.51174
1.51174
-1.19452
1.19452
1.50249
0.0198812
-1.9208
0.409058
-0.9203
-0.786279
1.70658
-1.62804
-1.2656
1.2656
0.124945
-1.42457
1.29962
-1.49372
1.49372
-1.27964
-0.219552
1.4992
-1.36988
1.36988
1.65516
-0.143423
-0.460644
1.51072
-1.05008
1.72128
-0.501466
1.3262
-0.214183
-1.11202
-0.700279
1.09743
-0.397152
1.1863
-1.46019
0.273892
-0.881154
0.881154
-1.14577
1.03965
0.106128
0.9523
-0.9523
1.19044
-1.32742
-2.27972
0.811529
-0.811529
1.01427
-1.22924
1.8258
-2.04076
-1.60611
-0.621601
-0.818651
-0.78746
-0.899114
0.899114
-1.04033
1.02988
1.92899
0.0933461
-1.46323
0.104276
-0.299203
1.21493
1.16186
1.73229
0.165943
0.531885
-1.21572
2.03437
-1.46323
-0.982741
-0.477448
1.29968
-1.29968
0.904499
-0.420167
-0.484332
1.33061
-1.14556
-0.18505
-0.802508
-0.651875
1.45438
0.00103271
-0.079728
0.0786953
1.6778
-0.388142
-1.695
-0.165438
-0.355982
0.907162
-0.55118
-0.0383308
0.0450274
-0.00669661
-0.136619
-0.610566
0.747185
-1.16021
0.459935
0.0116172
0.0598349
-0.071452
-0.0325632
0.00739592
0.0251673
0.856288
0.21305
-1.06934
-0.00200775
0.00200775
1.47499
0.524537
0.240544
1.23445
0.798723
0.879073
-0.0229938
-0.00956942
1.23256
-0.504462
-0.728096
0.917944
0.314614
-1.07046
-0.624538
-0.264164
-0.806298
-0.98052
-0.476501
-0.90873
1.38523
0.00411596
-0.0424467
-0.00869257
0.0341296
-0.025437
-0.728078
0.853023
-0.649601
-0.285088
0.93469
-1.17281
0.953257
0.000408456
-0.000408453
0.0910766
0.816086
0.995576
0.650648
0.863116
0.467489
1.15931
-0.296191
-0.0776859
0.636941
-0.559255
-0.364357
-0.479179
0.843536
0.410277
-0.744446
0.33417
1.14031
0.859683
-0.747493
0.756152
-0.00865894
-0.792367
1.06626
-0.889737
0.199063
0.690674
-0.888361
-1.11649
-0.843443
-1.43628
1.10761
0.336616
-1.44422
0.927767
-0.0714786
-0.199689
0.746769
-0.54708
-0.955869
-1.0849
-1.43237
-0.849564
-1.12107
-1.61001
0.760449
-0.867978
1.27704
-0.345787
0.806404
-0.460618
-0.980413
0.174115
-0.419122
-0.536641
0.955763
-1.30933
0.890205
-0.264974
0.829749
-0.564776
-0.832457
-0.0762733
0.753476
-0.617497
0.830547
-0.893225
0.594022
0.0492803
-0.0376631
0.0362592
-0.0449518
0.59575
-0.809932
0.848473
-0.68253
-1.49246
0.681513
-0.792522
0.111009
0.810949
-0.706673
0.900998
-0.0907356
-0.810262
-1.40006
0.000962146
-0.000962146
0.000962146
1.06834
-1.06834
1.07182
-1.07182
-1.1544
1.36182
-0.207418
0.625468
-1.07773
0.452257
-0.295078
1.36689
-0.899346
0.581585
0.31776
-0.929525
0.0301794
0.831785
-0.623731
-0.208054
0.0292767
0.337216
-1.12958
-1.25368
1.25368
-0.440267
1.35821
-0.106551
-0.464115
0.00667589
0.457439
-0.153307
-0.310808
-0.642408
0.489101
0.371845
1.02249
1.4024
0.616124
-0.0200996
0.973357
-0.0779875
0.931011
-1.24864
0.359728
-0.838908
-0.28268
-0.934354
0.333901
0.600453
-1.1197
0.185349
0.0899694
-0.799768
-0.963904
-0.315299
-1.45725
-0.727061
-0.232637
1.72636
1.06699
-1.20212
1.30825
-0.0630771
-0.681369
-1.05177
1.69518
-0.643407
0.0851635
-1.4103
1.35401
1.97582
-0.860245
0.860245
-1.6429
0.78266
-0.00564534
-0.00250943
0.00815477
-0.0255829
0.0302338
-0.00465089
-0.00667146
0.00410555
0.0025659
0.0474523
-0.057299
0.00984665
-0.00393588
-0.00421918
0.00815506
0.00414494
-0.00808083
-0.0554948
0.00951409
0.0459807
-0.594127
0.294919
0.299209
-0.0637064
0.0492385
0.0144678
0.0149752
-0.0643149
0.0493397
-0.0041736
0.00831854
-0.00498412
-0.000559495
0.00554361
0.0181796
-0.000695617
-0.017484
-0.00178553
-0.00902325
0.0108088
0.00605872
0.00470677
-0.0107655
-0.00210707
-0.00547981
0.00758688
0.00508385
-0.00446241
-0.000621437
0.00796816
-0.00224817
-0.00572
0.0134017
0.0126166
-0.0260183
0.0387475
-0.0253458
0.000977155
-0.00607975
0.00510259
0.00561917
-0.00464202
0.63485
-0.435786
0.0881082
-0.0453813
-0.0427271
-0.018746
-0.0208331
0.0395791
0.028598
-0.0488717
0.0202737
-0.00376909
0.00376912
-0.00653615
0.00170658
0.00482957
0.033319
-0.0119309
-0.0213882
-0.0492714
0.0104313
0.03884
-0.0859073
0.0152916
0.0706157
0.00356869
-0.00824176
0.00467307
-0.00806078
0.0054892
0.00257158
0.106838
-0.0348804
-0.0719577
-0.004176
0.0635549
-0.0593789
0.0452094
-0.0435401
-0.00166931
0.00155704
-0.0200291
0.0184721
-0.0587715
0.0156398
0.0431317
-0.0385968
0.0541592
-0.0155625
0.00325811
-0.00757965
0.00432154
-0.00589156
-0.00218928
-0.00593329
-0.0071742
0.0131075
-0.0101525
-0.0418675
0.0376914
0.0315348
-0.0734022
-0.00373477
0.00990835
-0.00617358
0.0322187
0.00849818
-0.0407169
0.0199467
-0.00585585
-0.0140909
0.00305968
-0.00305969
0.00918226
-0.0283801
0.0191978
-0.00702117
0.00436676
0.0026544
0.061823
-0.0597748
-0.00204818
0.0306986
0.0322696
-0.0629682
0.0567453
-0.0260467
-0.00460618
-0.00241499
-0.0201411
0.0212389
-0.00109779
-0.00790815
-0.0122329
0.00370585
-0.0108801
-0.0062961
0.00775203
-0.00145593
0.00446882
-0.00673981
0.00227099
-0.0242722
0.0392474
0.0207552
0.0107871
0.0073925
0.018183
-0.0247344
0.0307525
-0.00601808
0.235306
-0.19725
-0.0380563
-0.00639948
0.00266322
0.00373627
-0.628637
0.343548
-0.0219517
0.0140435
0.0859399
0.464017
-0.549957
0.0552619
-0.0719039
0.0166419
-0.00350953
0.00617975
0.01299
-0.0191697
0.0012913
-0.0012913
-0.0564508
0.473615
-0.417164
0.0133678
-0.00208826
-0.0112796
0.00830085
-0.00404621
-0.00425464
0.00514386
0.00282431
0.00915016
-0.0282956
0.0191454
0.0191699
-0.0219817
0.00281176
0.0108461
0.00832386
-0.0263422
0.0533848
-0.0270425
0.00464871
0.00365214
-0.0024604
-0.00393909
-0.012572
-0.0177348
0.0303069
0.00212
0.00879786
-0.0109179
-0.00359414
0.00573839
-0.00214425
-0.0068369
0.00324275
0.00602393
-0.00028554
0.000430636
0.0151909
-0.0156215
-0.00925805
-0.0293826
0.0386407
-0.00979164
-0.035814
0.0456056
-0.430441
0.355628
0.0748128
-0.0339597
-0.00463705
0.0183199
0.0309793
-0.0492992
0.0164383
-0.00333082
-0.0215955
0.0214708
0.000124697
-0.0187067
-0.00288878
0.0273907
-0.0165446
-0.0500731
0.0296936
0.0203795
-0.00132905
0.00644955
-0.00512051
-0.00413867
0.0561761
-0.0520374
0.0576843
0.0502471
0.00592899
-0.00149643
0.0243083
-0.0228119
0.0162752
-0.0158446
0.0147788
-0.00676422
0.022843
-0.0160787
0.00529337
-0.0196124
0.014319
-0.00936103
-0.00894333
0.0183044
0.00989299
0.00654532
0.000531959
-0.002398
-0.0273631
0.0189035
0.00845953
-0.0227223
0.0253877
-0.00266537
-0.0500854
0.0442912
0.000183992
-0.00672015
-0.00378558
0.005681
-0.00189542
-0.0269419
-0.567186
0.0589388
0.0372808
-0.0962196
-0.013459
0.00692641
0.00653261
0.0106291
-0.00710422
-0.00352489
-0.0496523
-0.0250739
0.0747262
0.319117
-0.526891
0.207774
-0.00501352
-0.00513895
-0.0892549
0.223214
-0.133959
-0.918318
0.307752
-0.0055706
0.0063574
-0.0007868
-0.00779724
0.00710162
0.0340338
9.57395e-05
0.0256429
0.00839092
0.0244041
0.00737821
0.0138607
0.0126716
0.00410731
0.00975336
0.000853195
-0.023847
-0.0166308
0.00664204
-0.0159564
0.00931433
-0.01559
-0.00104081
-0.00894796
-0.0249925
0.000171812
0.0248207
-0.0392728
0.0138358
-0.246522
-0.183919
-0.0256933
-0.038013
0.0232218
0.0309375
0.0316813
-0.389599
0.491725
-0.102126
-0.509294
0.500635
0.00166646
-0.00166646
-0.00602272
0.00257055
0.00345217
-0.07693
0.0272777
-0.00171111
0.0469205
-0.433239
-0.48508
0.164271
-0.597509
-0.55219
0.0671097
0.00273718
0.0294815
0.0263048
-0.0269608
0.000655959
0.0418656
-0.0472432
0.00537757
-0.00720053
-0.0147812
-0.0139648
-0.00511137
-0.0096698
0.0577462
-0.142201
0.0844547
0.24484
0.220919
-0.465758
0.343805
-0.0989654
0.555089
-0.0180214
0.0218995
-0.00387809
-0.0159406
0.0228554
-0.00691477
-0.0339621
0.0447549
-0.01014
-0.0490262
0.0591662
0.0365133
-0.000254083
0.0263733
-0.0352834
0.0283687
0.00346404
-0.0217045
0.00552149
0.00306214
-0.00858363
-0.00292966
0.00730022
-0.00437056
-0.0481906
-0.00108082
-0.0152745
0.0438725
0.0276735
0.0210132
-0.0486867
0.0365918
-0.0300979
-0.00649396
0.0313952
-0.0303625
0.0329196
-0.0288037
0.00806906
-0.00233479
-0.00573427
0.510697
0.124153
0.582812
-0.0721154
0.886009
-0.41852
0.0862414
-0.00766817
0.000959434
0.00670873
-0.00837883
0.00273349
-0.009719
0.00671294
0.00300606
0.00172007
-0.0114391
0.0118824
-0.00516947
0.00487009
0.0195664
-0.0244365
0.0095666
0.00295619
-0.0125228
0.00728927
-0.00807874
0.000789466
0.00561638
-0.00733209
0.00171571
0.00343141
-0.00721699
0.0127453
-0.0314913
-0.00878306
-0.00652598
0.015309
0.00596579
-0.0147489
0.00730843
-0.0138344
-0.0209569
0.0113875
-0.00468599
0.0310592
-0.00833013
0.012036
-0.00697891
0.011849
0.023885
-0.489514
0.546093
-0.0565783
-0.0221222
-0.00382703
0.0259492
0.00136699
0.0181994
0.0143724
0.0220746
-0.0766641
0.0545894
-0.0340161
0.0560907
0.000519623
-0.005267
0.00474737
0.00591068
0.000113246
0.0064303
-0.00515375
0.758693
0.00984039
-0.768534
-0.0515689
-0.512802
0.193832
0.31897
0.0361139
0.0057517
-0.0080948
-0.0354453
0.0280191
-0.03979
0.0715727
-0.0317828
0.442726
-0.547798
0.105072
-0.0389716
-0.0299626
0.0689342
-0.0731217
0.0341501
-0.357638
0.592747
-0.235109
-0.577051
0.556952
-0.0595017
0.163914
-0.104413
0.108029
0.127277
0.003242
-0.00311184
-0.00013016
0.254844
0.114716
-0.369559
0.261519
0.018555
-0.016998
0.00908232
0.0248352
-0.0339175
-0.021699
-0.0122631
-0.0327884
0.0229967
-0.0165513
0.050125
-0.0335737
-0.886123
-0.188228
1.07435
0.571508
0.37373
-0.945238
0.470328
0.28744
-0.757768
0.180663
0.289664
-0.507153
0.618162
-0.466203
0.630474
-0.306218
0.392158
-0.440551
0.362563
0.754721
0.0120135
0.0213056
-0.0211637
-0.00357074
0.030691
-0.0221929
0.00510811
0.0311919
0.00184662
0.00878248
-0.00757506
-7.19052e-05
0.00764697
-0.00572844
0.00871057
0.505905
-0.0418874
-0.0902239
0.447929
-0.357705
0.415681
0.00129971
-0.0020829
0.000783209
-4.0042e-05
0.00238844
-0.0023484
0.0589161
-0.767087
0.708171
0.00226983
-0.000206124
-0.00206371
0.162149
-0.104403
-0.039224
1.17954
0.285647
-0.962664
0.677017
-0.00153718
-0.00223189
0.00219232
-0.00372949
-0.753751
0.339436
0.414315
0.573087
-0.859685
0.494173
0.365512
0.0876625
-0.0241076
-0.267908
0.498396
-0.230488
-1.21707
0.565191
-0.00170816
0.00170817
-0.696438
0.669496
-0.00870745
0.00410128
0.777455
-2.03113
0.749185
-0.758229
0.00904432
-0.554056
1.6224
-0.607788
0.695436
-0.087648
0.385442
0.25738
-0.642822
0.828168
0.00242326
-0.00242326
-0.243508
0.778859
-0.535351
-0.733023
-0.466632
0.800533
-0.623636
0.037228
-0.0712441
-0.874528
-0.342539
-1.28218
0.821557
0.53499
-0.612676
-1.03488
0.470103
0.0457941
0.462567
0.87822
-1.34079
-0.829454
1.29202
-1.38351
-0.774808
0.354641
-0.689358
-0.0854497
-0.868438
0.008753
-0.809522
1.33925
-0.814713
0.18485
0.394362
0.00150113
0.00267553
-0.00417666
-0.128001
0.363724
0.213955
-0.903313
-0.365364
0.152741
0.212622
-1.08258
0.624518
0.124667
-0.633271
0.00279079
-0.00301406
0.000223266
-0.955315
0.0326104
0.0828575
0.0234786
-0.466285
0.649234
-0.182949
-0.343221
1.47706
-1.82028
-1.01495
-0.10612
0.929788
0.524595
-0.0198932
-0.0919378
0.0720446
0.828556
-0.509439
0.362271
-1.69367
1.39859
0.894869
-0.403452
0.210186
0.193266
-0.98963
1.84987
-0.737608
0.536111
0.201497
-0.261709
-0.475899
-0.20697
1.24479
-1.45175
0.00234205
-0.000675588
-0.304923
0.781534
0.0451217
-1.31804
0.198339
-0.519319
-0.00138385
0.00138385
-0.0115993
-0.610197
1.54137
-0.179554
0.611846
0.069368
0.03747
-0.0242625
0.0565321
0.24098
0.114648
-0.162472
0.0109051
0.607335
-0.597495
-0.555766
-0.283141
0.901511
-0.418794
0.00245073
-2.74655e-05
0.646914
0.0328552
-0.479947
-0.589871
-0.0337655
-0.900502
0.310631
-0.53499
0.709175
-0.43405
0.548698
-0.717191
-0.266018
0.476204
-1.34627
-1.48969
0.649465
-1.04421
0.0548696
0.00187572
-0.253476
0.831856
-0.578379
0.0405576
-0.100792
0.0603427
0.0404495
-0.0579677
-0.0428248
-1.18999
1.05194
0.138054
0.227923
-1.27213
0.828377
-0.361614
0.0315555
0.229839
-0.261394
-0.0859822
0.117538
-0.00776396
0.0221363
0.016121
0.016653
0.00482424
-0.393569
-0.569095
-0.619195
0.092536
-1.55576
-0.0239385
-0.0616016
0.770576
-1.53059
0.760012
-0.877744
1.64832
-0.753133
0.212656
0.162477
1.22946
1.55576
0.170599
0.0551567
-0.0505706
-0.00458608
-0.00461814
1.64316
-1.02703
0.915059
-0.281993
0.00400499
-0.0959428
-0.0761668
0.0801718
0.873737
0.200613
0.688687
-1.06248
0.643962
-0.373794
-0.937322
0.478315
-0.651268
0.0366541
0.815513
0.53352
-0.574943
-0.895791
0.320848
-1.0849
0.537501
-0.0478251
0.11987
0.0323467
0.149884
-0.00381206
0.00356693
0.000245124
-0.00231093
-0.144284
-0.572907
-0.390806
0.0184707
1.58825
1.08678
0.00188126
-0.00467749
0.00279622
-0.00363366
0.00551492
0.00964602
-0.00564527
-0.00400075
0.00224894
0.00739708
-0.00353635
0.00653204
-0.00299568
0.00567155
0.000302693
-0.00597424
-0.0010944
0.00949202
-0.00839762
0.00684343
-0.00655942
-0.000284006
-0.00467539
-0.00232022
0.00699562
-0.000439633
-0.00559308
0.00603272
-0.00438304
0.0020755
0.00230755
0.00177002
0.00717028
-0.0089403
-0.00136511
0.0107509
-0.00938577
-0.0103202
0.00365972
0.00666043
-0.00120315
0.00977096
-0.00856782
-0.0154813
0.0153043
0.000176934
-0.00672932
0.00337349
0.00335583
0.00997525
-0.0120647
0.00208943
-0.0173747
0.0120556
0.0053191
-0.00438398
0.0040244
0.000359572
0.00787594
-0.00924105
-0.0182169
0.00104582
0.0171711
-0.0103897
-0.00782726
-0.00702255
0.0029531
0.00406945
0.00029759
-0.00732014
0.00493732
0.00416204
-0.00909936
-0.00764083
0.000620759
0.00702007
-0.00259019
-0.00505064
0.00048312
0.00537943
-0.00586255
0.0094841
-0.0100906
0.000606489
0.00861652
0.000867583
-0.00801149
-0.00357037
0.0115819
-0.00551434
0.00507471
-0.00131588
-0.00481698
0.00613287
0.00283396
0.0042605
-0.00709446
-0.00770097
0.00709496
0.000606012
-0.00283231
-0.00486866
0.00621682
-0.00880701
-0.010278
0.00188497
0.00839303
-0.0034932
-0.00678481
0.00124493
-0.00576369
0.00451876
0.0046032
-0.000621692
-0.00398151
0.00392917
0.000674032
-0.0175306
0.0302759
-0.00247162
0.00470518
-0.00223357
-0.00560986
-0.000612943
0.0062228
5.42992e-05
-0.00566416
0.00187526
-0.00332258
0.00144733
0.0259007
-0.0404082
0.0145076
0.026572
-0.00824338
-0.0183286
0.0023445
-0.00880981
0.00646531
0.0111068
-0.000852402
-0.0102544
0.00390072
-0.00271718
-0.00118355
-0.00751937
-0.00271951
0.0102389
-0.0140369
0.00911053
0.00492641
0.00496996
-0.0105796
0.00560966
-0.00580701
0.00114265
0.00466436
0.0143324
-0.00380073
-0.0105317
-0.00832085
0.0226532
0.000688615
0.00762727
-0.00831588
0.0030461
0.0077649
-0.010811
-0.0068521
-0.00215218
0.00900427
0.0057642
-0.0121914
0.00642718
0.00847928
-0.00717702
-0.00130225
0.00294835
-0.00934678
0.00639842
0.0101038
-0.0226479
0.0125441
0.00237739
-0.00668473
0.00430734
-0.00697188
-0.000877648
0.00784953
0.00997139
-0.00549853
-0.00447286
-0.00827853
-0.000452518
0.00873104
-0.00677405
-0.000858706
0.00763276
0.00677111
-0.323287
0.316516
0.190944
-0.184172
0.0103186
7.29284e-05
-0.0103916
-0.00180869
-0.00810285
0.00991153
0.000857487
-0.00423711
0.00337962
-0.0092202
0.0059954
0.0032248
0.00188901
0.0087743
-0.0106633
-0.0113931
-0.0040882
-0.00464557
-0.00674749
0.0112061
0.0153659
0.00832169
-0.0083217
-0.0046413
-0.00450131
0.00914261
-0.00950371
-0.00589474
0.0153984
0.00645334
-0.00244298
-0.00401036
0.00751432
-0.00693814
-0.000576177
0.00500489
-0.00558783
0.00793389
-0.00234605
-0.00901396
0.00108708
0.00792688
-0.00398169
-0.00503227
-0.00813312
0.00816337
-0.00816337
-0.00200295
-0.00428399
0.00628694
-0.00803018
0.00763151
0.000398665
-0.00125641
-0.00677377
-0.00394868
0.00671319
-0.00276452
-0.00593147
0.0036517
0.00227977
0.0017494
-0.00768088
-0.00473533
-0.00252177
0.0072571
-0.0107672
0.00479601
0.00597117
-0.00945191
0.00986662
-0.000414712
-0.00531685
-0.00413506
-0.000151977
0.0180292
-0.0178772
-0.0200106
0.0290811
-0.00907053
0.00473657
0.000347278
0.00799293
0.000709087
-0.00870202
0.00986634
0.00669441
-0.0165608
0.02895
-0.0431323
0.0141823
-0.00896641
0.0104978
-0.00153141
-0.00553131
-0.0107644
0.0162957
0.00850616
-0.00538159
-0.00312458
0.00161142
0.00689474
-0.00432289
-0.00429241
0.0086153
-0.00728867
0.010237
-0.0123653
0.00551319
-0.00448448
0.0107106
-0.00622608
-0.00123407
0.00341161
-0.00217754
0.00420285
-0.00616762
0.00196478
-0.00981979
0.00215083
0.00766896
0.0109276
-0.0035467
-0.0073809
0.00431965
0.00660795
-0.00555856
0.00132371
0.00423485
-0.00489888
0.00495318
-0.00904705
-0.000299723
-0.00600095
0.003255
0.00486205
-0.00811705
0.00479378
0.00412685
-0.00892063
-0.00461282
0.009977
-0.00536419
0.00822665
-0.00948306
-0.00884749
0.00778822
0.00105928
-0.00608405
0.00245039
0.00833546
-0.00300254
-0.00533292
0.0107987
-0.0116053
0.000806659
-0.00460826
0.00406196
0.0005463
0.00595609
0.00348982
-0.00944591
-0.00538327
0.0148993
-0.00951607
-0.0158009
0.00541124
-0.00582567
-0.00831257
-0.00740426
0.0157168
0.0135812
-0.0218937
0.0392986
0.00993992
-0.00843425
0.00614441
0.00228984
0.00668695
0.00107121
-0.00775815
0.00797866
0.00502743
-0.0130061
0.0306607
-0.0615555
0.0308949
0.0479619
-0.0173012
-0.00632124
0.00617159
0.000149651
-0.0241503
-0.0253915
0.0495417
0.119495
-0.0139831
-0.105512
-0.00692698
0.00801189
-0.00108491
0.0291851
-0.00380416
-0.0253809
0.0403459
-0.0111608
-0.00245224
0.00695996
-0.00450772
0.00130135
0.0103323
-0.0116337
-0.00528643
0.000570392
0.00471603
-0.000691178
0.00907419
-0.00838301
-0.00872756
0.0121292
-0.00340165
0.0164806
-0.0115392
-0.00494131
-0.000993896
-0.00470396
0.00569785
-0.00172655
-0.00383256
0.0055591
0.00552948
0.00485627
-0.0103858
0.00569402
0.000610603
-0.00630462
0.0120009
-0.00735842
-0.00464243
0.0102219
0.00177892
0.00471308
0.00508327
-0.00979635
0.00826027
-0.00332295
-0.00103129
-0.00637038
0.00740167
0.00218831
-0.00770507
0.00551676
0.0103837
-0.0081348
0.0101674
-0.00749882
-0.00266855
-0.00520871
0.000224583
0.00660144
-0.00357633
-0.0030251
-0.000127882
-0.009178
0.00560167
-0.0033567
-0.0044485
0.0078052
0.0105732
-0.0123819
-0.00827012
0.00394723
0.00243371
-0.00752315
0.00508944
0.0060024
0.00712853
-0.00475114
-0.0109371
0.00317156
0.00776559
0.00638734
-0.0040956
-0.00229174
-0.00292541
-0.000838234
0.00376364
0.000486151
0.00459699
-0.00508314
0.00655934
-0.00607319
-0.000564003
-0.00811048
0.00867449
-0.0801198
-0.19263
0.27275
-0.0363881
0.0308381
0.00554991
0.00578577
0.000473589
-0.00625936
-0.00264847
-0.00764115
0.0026598
0.00498136
-0.00685881
-0.00677554
0.0136344
-0.005128
-0.00879899
0.013927
-0.00476422
0.00940147
-0.00463726
-0.00406462
0.0108362
-0.00677158
0.00568864
-0.00349877
-0.00218987
0.000652017
0.00503662
-0.00226416
-0.00211982
0.00153519
0.00692142
-0.00845661
0.00207504
0.00587039
-0.00794543
0.000356095
-0.00804088
0.00768478
0.00442736
0.0119715
-0.0163989
0.000253261
-0.00768324
0.00742998
-0.00661664
0.0068699
0.00418984
-0.00660423
0.00241439
-0.0057825
0.00699552
-0.00121302
-0.00114889
-0.00463361
0.0066003
0.00469737
-0.0112977
0.413925
-0.220093
-0.00560166
0.0112367
-0.00563506
-0.0118933
0.00388181
-0.0100043
0.00708758
-0.00508882
-0.00199876
0.00496916
0.00121121
-0.00618037
0.00732031
-0.00590839
-0.00141192
-0.00121545
-0.0069974
0.00821285
-0.00105641
-0.00746344
0.00851986
0.00291468
-0.00922611
0.00631143
-0.00750366
-0.00720219
0.0147059
0.000286132
0.0069104
-0.00719653
0.000543826
0.00622621
-0.00677003
-0.000816632
0.00879529
-0.0108824
0.00359368
-0.00311745
-0.0087716
-0.00747942
0.00666548
0.000813943
-0.00366397
-0.00381545
0.00704357
-0.00687509
-0.000168471
0.00357684
0.00346673
-0.00697312
0.00956812
-0.00259499
-0.00786416
0.000891038
-0.00536148
-0.00435945
0.00972093
0.00532177
-0.0173031
0.0119814
0.0121924
-0.00784942
-0.00434302
0.00739167
0.00480078
-0.0413487
-0.0141461
0.00569409
0.00351796
-0.00921205
-0.0107827
0.00698356
0.00379916
0.00351464
0.00342975
-0.00694438
0.0164444
-0.00766719
-0.00877719
0.010927
-0.0150489
0.00412186
-0.00433711
-0.00439376
0.00873086
0.00059067
-0.00968799
0.00909732
-0.00405328
-0.00773967
0.0117929
0.00957515
-0.00698429
-0.00259086
0.00407991
0.00554978
-0.00962969
-0.00232375
-0.00807063
0.0103944
-0.00498272
-0.00483302
0.00981574
0.00276037
0.00511852
-0.00787889
0.00702874
-0.00770814
0.000679404
0.00127741
-0.00972852
0.00845111
-0.0264758
0.0206391
0.00583668
0.00796943
-0.0344453
0.0104261
-0.00735763
-0.00306846
-0.00766059
0.00131967
0.00634091
0.00367523
0.00455871
-0.00823394
0.000918799
0.00318299
-0.00410179
0.0580121
0.0241546
-0.0821667
-0.0278953
0.00910509
-0.00851442
0.00500062
0.00163117
-0.00663178
0.000180054
0.00602586
-0.00620591
-0.0221122
0.0150675
0.00704464
-0.0139268
-0.00818536
0.0023786
-0.00760887
0.00523027
-0.0411758
0.000458914
0.00848212
-0.0087805
0.000298375
0.00518975
0.00611135
-0.0113011
0.00710725
-0.00249422
-0.00461303
0.0198856
-0.0107033
0.0110111
0.00652202
-0.0175331
0.000712807
-0.00937339
0.00866058
0.00185813
-0.0130306
0.0111725
0.000163024
-0.0129603
0.0127973
0.00513789
-0.0082604
0.00312251
-0.0103483
0.00347718
0.00687109
-0.00347843
-0.00541912
0.00889755
0.0030791
0.00551081
-0.0085899
0.00713754
-0.00683996
0.00448697
0.00388483
-0.0083718
-0.00950202
0.00447704
0.00502498
-0.00179366
-0.00770836
-0.00736045
0.00859129
-0.00123084
0.00854021
-0.000378079
-0.00816213
-0.00167897
-0.00202634
0.00370531
-0.00277166
0.0141581
-0.0113865
-9.10452e-05
0.012281
-0.0121899
-0.000145794
-0.010472
0.0106178
0.00771789
-0.012586
0.00486813
-0.0113949
0.00329202
-0.00844897
-0.0029459
-0.00703401
-0.00495732
0.0119913
0.00340152
-0.00963844
0.00623693
-0.00805924
-0.00145932
0.00951855
-0.00652404
-0.00881976
0.00176871
-0.00601831
0.0042496
-0.00324575
0.00495233
-0.0234291
0.0118024
0.0116266
0.00806913
-0.0012926
-0.00677653
-0.00590632
0.00680963
-0.000903312
0.0149643
-0.00403729
0.0099643
0.00500002
0.0124071
0.00881214
-0.00767221
-0.00113993
0.00203809
-0.00482289
0.0363577
0.0108338
-0.00360626
-0.00722758
0.00816016
-0.00927376
0.0011136
0.00106351
0.00709666
0.00843725
-0.00896028
0.000523035
0.00430219
0.00413506
-0.00326602
-0.0167445
-0.0115869
-0.00894209
-0.00780244
0.00803318
-0.00195489
-0.00607829
-0.00665852
0.00613788
0.000520639
0.002273
0.00149586
-0.00376885
-0.0135596
0.0061849
0.00737469
-0.00610338
-0.005539
0.0116424
-0.0233422
-0.0192289
0.0425712
-0.0104044
0.00611758
0.00428684
-0.00567054
-0.00473389
0.0110456
-0.00822319
-0.00282237
0.0030163
0.00775789
-0.0107742
-0.00868844
0.00759404
0.0021345
-0.00894491
0.00681041
-0.00681569
0.0052947
0.00152099
-0.0018452
0.00344434
-0.00159914
-0.00459504
0.0161944
-0.0115994
-0.0246909
0.0200958
0.138596
-0.240722
-0.184691
0.0651008
-0.0197383
-0.0453625
-0.0108049
0.00476956
0.00603533
-0.0118299
0.00102502
-0.00428452
-0.00571699
0.0100015
0.00557999
-0.00986451
-0.0123865
0.0216491
-0.00926254
0.0178473
0.0273498
-0.00570073
-0.011145
-0.0415846
0.0527297
0.0312647
-0.0424098
-0.00127773
0.00770803
-0.0044489
0.0251528
-0.0207039
0.0125236
-0.0301492
0.0176257
0.00133544
-0.00858298
0.00724754
0.0183515
-0.00518088
-0.0131706
0.0152618
0.00308971
0.00539698
0.0051037
-0.0105007
-0.00541402
-0.0100758
0.0190159
-0.00894007
0.0035663
-0.00529285
-0.00309222
-0.0387691
-0.0351878
0.0739568
0.043359
-0.0656814
0.0223224
0.00479941
0.00614928
-0.0109487
-0.00278114
0.00758054
4.03917e-05
0.00610889
0.00301819
0.00514286
-0.00816105
-0.00295328
0.00853419
-0.0055809
0.00609719
0.00193598
-0.00397855
0.00967264
-0.00254099
-0.00226107
0.00480205
-0.0105832
0.014326
-0.00374277
-0.00628408
0.0150989
-0.00881478
0.0102616
-0.00148733
0.00669125
0.0111746
-0.00142957
-0.00974501
0.00389849
0.00417423
-0.00807271
-0.0117037
0.00657569
-0.00437301
-0.00685211
0.0112251
0.00919876
-0.00465549
-0.00454327
0.00184034
-0.00656795
-0.00422296
0.0107909
-0.00585515
0.00426502
-0.00848798
0.00317429
-0.00921484
0.00604054
-0.00633578
0.00951007
0.00585534
-0.00434775
-0.00150759
-0.00780273
0.00394099
0.00386174
0.00870489
0.00128512
-0.00999001
0.0029905
0.00407243
-0.00706293
0.00473991
0.00568384
0.00857036
-0.0103559
-0.00824337
0.00317439
0.00506899
0.0175321
0.0230714
-0.0406035
0.0371627
-0.0194889
-0.0176737
0.00065023
0.00659259
-0.00724282
-0.0055899
0.00624013
0.00179197
0.00480062
0.00978362
-0.00464574
0.00352935
0.00556018
-0.00908953
-0.000175908
-0.00472297
0.00573447
-0.00154463
-0.0062676
-0.0115901
0.00935922
0.00223092
-0.0112419
0.0105507
0.0071012
-0.00305092
-0.00405029
0.00183666
0.0117445
0.0119404
0.00557177
0.00617274
0.00680397
-0.0102972
-0.00146817
-0.00898318
0.0104514
0.0133045
0.00176976
-0.0150743
0.0211841
0.00956836
0.0337077
-0.00304028
-0.00558004
0.00862031
-0.00645887
0.00341859
0.00435723
-0.00497018
-0.00885411
-0.0287791
0.0376332
0.000477409
0.00790161
-0.00837902
0.0108681
-0.00867262
-0.00219546
-0.0167725
-0.000457345
0.0172298
-0.044573
0.0207916
0.0237813
0.0356163
-0.0261894
-0.009427
0.00323488
0.00633742
-0.00957231
0.0131994
-0.0206037
-0.000185105
0.0062823
0.00487863
-0.00506373
0.00420074
0.00208155
0.00426911
0.00522291
-0.00532382
0.00959293
-0.00226279
0.0074857
0.00873594
-0.0226627
-0.00622363
0.00522973
-0.00607408
0.00390459
0.00216949
0.000612865
0.0222146
-0.0254077
0.00319311
-0.00675266
-0.00401452
0.00525942
0.00158401
0.00574254
0.00727803
0.00873842
-0.00660392
-0.00666529
0.00666529
-0.0382992
0.0117127
0.0265865
0.00528931
-0.00704906
0.00175975
0.00705802
-0.00164271
0.00429612
-0.0026534
-0.00192239
0.00192239
0.0191059
0.0180567
-0.00829197
0.00733237
0.000959598
0.0319434
-0.00100589
0.00670866
0.00434157
-0.0110502
-0.00257339
0.00928205
0.00182156
0.00794105
-0.00976261
0.0068004
-0.00328577
0.00885869
-0.00991511
0.038036
0.0187188
-0.0567548
-0.00554188
-0.00521935
0.0107612
-0.0135107
-0.00326177
-0.00041112
-0.0130996
0.0141688
-0.0174306
-0.00635672
0.000776687
0.0256319
0.0018925
-0.0275244
0.010183
0.0154489
-0.0269932
0.0288857
-0.00247172
0.00784012
-0.00536841
0.00290017
0.00539246
-0.00829264
-0.00399257
0.00399257
-0.00449565
0.00732984
-0.00283419
-0.00674381
-0.0342275
0.0170768
0.0171507
-0.0120129
-0.00761407
0.00484576
-0.00484576
-0.00365408
0.00365408
-0.00304863
0.0127998
-0.00975114
-0.0011445
-0.00753471
0.00867921
-0.00867045
0.00637738
0.00229307
0.00105367
-0.00562074
0.00456707
0.00610525
-0.00143728
-0.00466797
0.00715892
-0.0108644
0.00939623
-0.00700908
0.00694306
6.60216e-05
-0.00434245
-0.00211641
0.00644783
-0.0105125
0.0029987
-0.0029987
0.00464054
0.00361973
0.0052534
-0.0120653
0.00361891
0.00844634
-0.0148897
-0.000161358
0.015051
-9.11037e-05
-0.0101371
0.0102282
-0.00703318
-0.00879543
0.0158286
0.00627581
-0.0040875
0.00283848
-0.00652674
0.00368826
0.0260697
-0.000503579
-0.0255661
0.0238645
0.00348525
-0.00736919
0.00829811
-0.000928916
-0.01158
0.0047212
-0.01379
0.00220998
0.0134084
-0.00868722
-0.0100791
0.000705702
-0.00672663
-0.00335246
0.000691026
0.00597446
0.0177347
0.010113
-0.0278477
0.00373137
0.00617989
-0.00991126
0.00736466
-0.0168801
0.00951546
0.00438857
-0.00438856
-0.0093665
0.00258302
0.00678348
0.00333135
-0.00861424
0.00528289
0.00291053
-0.00291053
0.00871256
-0.00569626
-0.01233
0.0101625
0.00216745
0.00290658
-0.00724543
0.00433885
-0.0131299
0.0141758
0.00376186
-0.00722186
0.00345999
0.00642508
-0.00552467
0.00562722
-0.000102544
0.00585133
0.000262489
-0.00611382
-0.0209746
0.0240706
-0.00309594
0.0210174
-0.000234905
-0.0207825
0.0101818
0.00512248
0.0103449
0.0124871
-0.00390038
-0.0101366
0.00442317
-0.00832355
0.000209833
-0.0103464
-0.00398961
0.00598235
-0.00199273
0.00392329
0.00248989
-0.00641318
-0.00571363
0.00571363
0.00421871
0.00387972
-0.00809843
0.0020793
-0.0020793
0.00623502
-0.0108905
-0.00820302
0.00798756
0.000215461
-0.265334
0.060169
0.205165
-0.166165
0.244705
-0.0785398
-0.431499
0.304874
0.00978599
-0.00111572
-0.00867027
-0.00664345
0.00082754
0.00581591
-0.00373687
-0.465512
0.321532
0.14398
-0.153094
-0.312418
-0.00099167
0.0112136
-2.51014e-05
-0.0148646
0.0139552
-0.00869752
-0.00525769
0.0139301
-0.00653875
0.00607795
0.000460798
-0.00453618
-0.00704899
0.0115852
-0.00715028
0.006119
-0.00741896
-0.000940046
0.008359
0.0222309
0.00407398
-1.17476e-05
-0.0209629
-0.0283261
0.0345307
-0.00620461
0.0120198
-0.0070539
-0.00307093
0.00307093
0.00185638
0.00631448
-0.00817087
-0.00584189
-0.00255836
0.00840025
-0.00398551
0.00375612
0.0027453
0.00436195
0.00666859
-0.0111257
0.0133501
-0.00222441
-0.000230997
0.0188135
-0.0185825
0.0213439
-0.0215749
-0.000483623
-0.00515548
0.0056391
-0.0345828
0.00838935
0.0261934
-0.0290766
-0.00550618
0.0353505
-0.0269612
0.00443584
0.00259971
-0.00703555
0.00575955
0.00680255
-0.0129433
-0.000224259
0.0131676
-0.0103356
-0.00260773
-0.00275677
0.0551207
-0.0523639
-0.0150311
-0.0232681
-0.00497001
-0.00170145
0.00123262
-0.00528255
0.00404992
-0.000362827
-0.00606177
0.00642459
-0.00649815
0.00613533
0.00298946
0.0136441
-0.0166336
-0.0142107
-0.00356829
0.017779
-0.0112212
-0.0062465
0.0076288
-0.0013823
-0.00517529
0.00680355
-0.000952223
-0.0334831
0.000455691
0.0330274
-0.0145866
-0.0188965
0.0354754
-0.0350198
0.0217651
-0.0190279
-0.00519572
-0.00121452
0.00121452
0.00446186
0.00115732
-0.00130972
0.00577158
-0.0143055
-0.0158437
-0.0187544
0.00149211
-0.00149211
0.00344717
-0.00344717
-0.00199439
0.00199439
0.00597555
-0.00117954
0.00124023
-0.0233947