/*--------------------------------*- C++ -*----------------------------------*\
  =========                 |
  \\      /  F ield         | OpenFOAM: The Open Source CFD Toolbox
   \\    /   O peration     | Website:  https://openfoam.org
    \\  /    A nd           | Version:  6
     \\/     M anipulation  |
\*---------------------------------------------------------------------------*/
FoamFile
{
    version     2.0;
    format      ascii;
    class       volVectorField;
    location    "1700";
    object      U;
}
// * * * * * * * * * * * * * * * * * * * * * * * * * * * * * * * * * * * * * //

dimensions      [0 1 -1 0 0 0 0];

internalField   nonuniform List<vector> 
29884
(
(7.47627 0.0588938 -1.04446e-16)
(5.32197 0.0253339 9.00661e-17)
(5.41211 -0.115443 4.78264e-17)
(7.1105 -0.0759823 7.19356e-19)
(7.21647 0.103648 -2.86295e-17)
(5.74369 0.155783 6.81444e-17)
(7.88475 -0.117883 -3.46591e-19)
(7.38588 -0.00156454 4.22602e-17)
(4.69148 0.121438 2.5196e-17)
(7.13536 0.0178205 7.15975e-17)
(7.44374 0.00878126 -3.16345e-17)
(7.20165 0.195516 1.60711e-17)
(8.07922 -0.132141 -2.62866e-17)
(7.15828 -0.112842 2.43798e-17)
(7.18058 0.0980976 -3.25403e-17)
(4.43065 -0.0562772 8.43198e-17)
(8.22206 0.0496688 -3.52555e-17)
(6.66405 0.195721 -5.93524e-17)
(6.51464 0.162963 0)
(4.17429 -0.00372494 -1.64904e-16)
(7.79014 0.209819 1.44788e-16)
(4.94066 -0.0377962 0)
(8.00611 -0.0624354 -3.85334e-18)
(7.11443 -0.0216371 0)
(7.0708 -0.0131693 0)
(7.59565 0.0435566 -2.53005e-17)
(7.84435 -0.0110469 0)
(8.01599 -0.0450224 8.41337e-17)
(5.16147 -0.024923 8.38759e-17)
(5.15894 0.113236 7.4747e-18)
(5.39904 -0.00800048 -1.36971e-17)
(4.81247 0.0893139 4.90352e-16)
(7.98976 0.0356127 -2.48134e-17)
(7.44248 -0.030803 0)
(7.27742 -0.0590863 -7.60338e-17)
(7.50835 -0.105118 6.06501e-17)
(5.01269 -0.0350315 8.13302e-17)
(7.54842 0.135972 9.66891e-18)
(5.35294 0.146898 -7.69799e-17)
(7.77453 -0.151097 -3.7275e-17)
(5.02118 -0.0501429 0)
(7.05709 0.0710567 1.50933e-17)
(7.60352 0.195562 -4.70336e-17)
(7.23304 0.282843 -3.09405e-16)
(6.97384 -0.0160984 2.13045e-17)
(7.57212 -0.15292 -2.34064e-17)
(8.02173 -0.207657 0)
(7.67488 -0.114582 -6.61471e-18)
(4.80697 0.0345138 -9.07189e-18)
(8.36083 0.0913348 0)
(7.37429 0.125259 0)
(7.18439 -0.0740872 4.19908e-18)
(4.71363 -0.151928 3.66572e-17)
(8.40825 0.0278705 1.02222e-16)
(7.19797 -0.0624924 -8.1223e-17)
(7.08481 -0.137797 6.19224e-17)
(4.40965 -0.0181536 1.03482e-17)
(7.97867 -0.0547382 0)
(6.66136 0.0508134 6.39195e-17)
(6.89442 -0.142322 -1.01904e-16)
(7.76245 0.160138 -1.82474e-17)
(7.81132 -0.00975858 2.4329e-17)
(4.71673 -0.100603 0)
(8.13777 0.0523341 -3.76877e-17)
(7.12379 -0.0690977 2.84343e-17)
(7.00967 0.0799789 -6.3216e-18)
(7.4515 -0.042405 8.93986e-18)
(7.82683 -0.115421 5.95982e-17)
(7.40528 -0.094277 -4.01136e-17)
(7.33192 0.0675838 5.43366e-17)
(7.24749 0.196411 4.09373e-17)
(7.67252 0.0660192 -1.34994e-17)
(7.51796 0.101948 0)
(5.63189 -0.138855 0)
(7.30009 -0.105106 -5.0028e-17)
(6.90881 -0.0927002 -1.77753e-17)
(8.1318 0.105309 0)
(7.87645 -0.12328 0)
(8.08292 -0.116832 0)
(5.09453 0.0361908 0)
(7.66914 -0.0764244 5.13238e-17)
(5.23324 -0.0517929 0)
(7.11408 -0.140167 0)
(7.01541 0.0939603 2.69619e-17)
(6.6018 -0.0559627 -1.88379e-17)
(4.53577 -0.493304 -9.09052e-18)
(7.35673 -0.000141774 0)
(7.60062 -0.0317191 0)
(7.24989 -0.108849 4.49512e-18)
(3.68038 -0.833334 1.83007e-17)
(7.18653 -0.197823 0)
(7.88581 -0.245887 -1.9279e-17)
(4.5564 -0.0857604 -5.19166e-17)
(3.3498 -0.705466 0)
(7.12184 0.126387 -4.25529e-17)
(1.62772 -0.361329 0)
(6.99611 0.0139717 -7.09325e-17)
(7.00704 0.012898 9.38548e-17)
(7.47414 0.0550208 1.11272e-17)
(3.397 -0.539555 0)
(7.01166 0.0371552 4.73346e-17)
(6.94227 0.0734746 1.06623e-16)
(7.65539 0.0144518 0)
(7.74979 0.0185469 -2.7687e-18)
(7.3544 -0.116668 -4.84621e-18)
(8.12064 -0.117595 0)
(3.82687 -0.628698 1.48877e-17)
(3.70906 0.0544275 -3.7174e-17)
(7.12141 0.133495 -4.84291e-17)
(6.96871 -0.32571 0)
(7.39871 -0.209051 0)
(1.48605 -0.209813 5.51827e-17)
(7.24587 -0.0796847 3.06416e-18)
(7.14414 -0.117352 0)
(7.30081 -0.119318 -2.48029e-18)
(6.97367 0.109966 -2.7092e-17)
(7.16208 0.115524 0)
(7.1232 -0.223869 0)
(6.76239 -0.07381 0)
(6.64271 -0.310133 4.1317e-17)
(7.00361 0.00600988 0)
(6.85235 -0.29945 2.65918e-17)
(7.31863 -0.156322 4.12644e-17)
(6.78413 0.195801 0)
(7.03536 -0.0246691 1.28257e-17)
(7.04694 -0.191379 -6.15622e-17)
(7.80242 -0.268716 4.72828e-18)
(7.95303 -0.0382926 1.5516e-17)
(6.86521 -0.220915 -4.55813e-18)
(6.98709 0.137867 0)
(6.77132 0.167892 1.29302e-17)
(6.94797 0.120478 -1.45805e-17)
(6.96227 -0.103791 4.06463e-17)
(8.13057 -0.116988 0)
(6.89133 -0.087787 0)
(7.46407 -0.0887147 0)
(7.64942 0.236386 0)
(7.34163 -0.109926 6.60486e-18)
(7.52997 -0.143875 -1.62218e-17)
(7.52996 -0.13005 3.34878e-17)
(7.38979 -0.114962 0)
(7.28039 -0.0146313 2.48502e-17)
(7.6974 0.142619 -1.82508e-17)
(7.7373 -0.228735 -9.37446e-18)
(7.97986 -0.184935 -1.02368e-17)
(8.00499 -0.210444 1.01101e-18)
(7.75415 -0.177724 1.90079e-17)
(7.48981 0.177278 5.38842e-17)
(7.81017 0.118114 -4.52895e-17)
(7.74828 0.207521 4.93985e-17)
(7.63924 0.125573 0)
(4.30965 -0.108335 -2.39048e-17)
(3.94634 0.0288313 0)
(7.90272 -0.143792 -1.3792e-17)
(7.82069 -0.220624 2.34433e-17)
(7.88458 -0.163893 0)
(7.92649 -0.185538 -7.23925e-18)
(7.81415 -0.205135 0)
(7.86524 -0.120606 0)
(7.90045 -0.177254 0)
(7.86 -0.149693 -2.36247e-17)
(7.03867 0.0283152 3.45161e-17)
(6.95583 -0.0459761 -3.50087e-17)
(7.54654 0.19147 -8.73077e-17)
(1.11658 -0.0675337 -1.14922e-16)
(1.06519 -0.00920498 1.16073e-20)
(4.91708 -0.0752172 0)
(4.72471 -0.00676546 0)
(7.00799 0.0425881 -3.95968e-17)
(7.95594 0.194885 5.30392e-17)
(7.35694 0.0477783 -1.58425e-16)
(6.9806 0.104438 0)
(6.97358 0.0753548 0)
(6.87653 -0.0651195 -1.95974e-17)
(7.0251 -0.0635171 0)
(7.01886 -0.177961 7.80039e-18)
(6.82289 -0.258534 -6.90177e-17)
(5.16547 -0.0323586 7.57474e-17)
(7.07278 0.139172 -3.73689e-17)
(7.25031 -0.195478 -7.1383e-18)
(6.99 -0.279047 -1.57187e-17)
(6.31581 -0.353416 -3.18935e-18)
(6.31298 -0.262579 3.95961e-17)
(6.43068 -0.198879 7.50896e-18)
(7.16531 -0.105618 9.32529e-18)
(7.2695 -0.13009 0)
(7.0652 -0.0226971 -5.5304e-17)
(6.9855 -0.000116537 3.60456e-17)
(7.29762 -0.237449 -4.1977e-18)
(6.98141 0.110519 3.01598e-17)
(7.37284 -0.171475 0)
(6.56012 -0.0689319 2.57768e-17)
(6.42572 -0.119307 -7.14807e-18)
(7.26097 0.159471 8.65357e-18)
(7.36211 0.127619 -3.40026e-18)
(7.03939 0.155105 0)
(6.84648 0.181722 0)
(7.37516 0.0545063 2.4063e-17)
(7.61659 -0.0177993 -7.07318e-18)
(7.46869 -0.129207 0)
(6.76965 0.0299815 0)
(7.59673 -0.0317067 0)
(7.53123 0.0593541 3.43931e-17)
(7.16893 -0.0111466 -3.44737e-17)
(7.37107 0.0701969 -9.78825e-17)
(6.56811 -0.286957 0)
(7.41064 -0.0733804 0)
(7.18866 -0.108837 0)
(7.32858 -0.0420467 0)
(7.84923 -0.119255 0)
(7.6959 -0.119109 0)
(7.87796 0.0654594 0)
(8.08211 -0.0804114 0)
(4.75388 -0.0767278 0)
(7.05616 -0.096436 0)
(4.11371 0.956678 -3.192e-19)
(6.32613 2.47932 -5.22199e-19)
(3.87153 -0.0578427 1.71101e-18)
(6.68503 2.52982 0)
(2.79441 -1.5571 -1.68011e-20)
(2.7151 -1.53134 1.42141e-17)
(7.39593 -4.28191 7.66846e-18)
(6.79296 0.318205 0)
(6.75064 2.20034 0)
(4.18968 -0.879085 -2.08922e-17)
(2.65793 -1.60374 -1.53221e-20)
(3.93525 -0.795162 2.87583e-18)
(3.05396 -0.570057 0)
(2.51065 -5.36917 6.05369e-18)
(7.68643 -1.3937 0)
(5.10936 -4.32434 -1.04887e-19)
(3.84551 -0.817208 3.22664e-18)
(4.17536 -0.198767 5.02778e-21)
(6.50778 -4.22388 -2.75714e-18)
(6.59168 -4.21744 -2.47394e-18)
(4.16422 0.0226068 5.85664e-19)
(4.11351 0.0456134 -7.23328e-19)
(6.72834 0.235405 -8.10752e-17)
(3.81603 -0.0980921 0)
(5.65592 -3.90262 -2.82044e-18)
(5.98529 -3.82296 0)
(1.64962 -0.898568 0)
(4.05395 0.698524 -1.48218e-18)
(6.10963 -4.25402 4.65532e-18)
(6.47505 -3.50843 -2.20919e-18)
(6.45667 1.84369 0)
(3.89613 -1.52726 2.86179e-18)
(3.86059 -0.511329 0)
(5.80917 -1.30655 3.73723e-18)
(7.05592 -2.3601 -1.51023e-17)
(6.69424 -3.69839 -4.68466e-18)
(6.43133 2.86112 1.414e-20)
(6.39476 2.25113 1.6968e-18)
(6.3741 2.34211 -2.16115e-18)
(2.63347 -1.19809 0)
(2.68663 -1.40441 7.46905e-20)
(2.96144 -1.51248 -1.83249e-17)
(2.86344 -1.46058 -2.57356e-20)
(6.30161 -2.02934 -7.97938e-18)
(5.86153 -1.84385 6.32626e-18)
(6.77205 -1.91814 0)
(6.24693 2.44266 2.3304e-18)
(5.87894 -4.33494 -2.05802e-18)
(1.75368 0.744788 -6.05216e-17)
(6.18775 2.85354 0)
(3.70048 -1.35831 0)
(7.44171 -3.72248 1.65951e-17)
(6.54996 1.95685 2.11193e-18)
(6.5997 2.0029 4.90958e-19)
(3.69687 -1.26828 0)
(6.53712 2.46922 -5.19362e-20)
(6.50895 2.4843 7.22147e-20)
(3.00187 -1.42483 9.24779e-18)
(3.57343 -1.99955 4.50504e-19)
(3.46355 -2.18089 3.67391e-18)
(3.94961 -1.08258 4.24356e-17)
(3.73604 -1.04566 0)
(3.07391 -0.708902 0)
(3.18484 -0.778115 5.0665e-19)
(5.9208 -4.09209 2.14308e-18)
(3.98836 -0.27543 0)
(4.10236 -0.70237 -7.00492e-19)
(6.87297 -0.412422 2.06648e-17)
(6.48113 2.46924 0)
(6.58041 0.198913 5.51641e-17)
(6.36836 2.13571 0)
(6.41218 2.18255 0)
(6.32789 -4.60851 0)
(0.964223 -0.477763 8.36722e-17)
(6.87514 0.31137 -7.63993e-17)
(2.90439 -0.392539 -9.79344e-18)
(4.12646 -0.406844 2.41632e-18)
(4.16254 -0.267921 -1.14498e-18)
(5.89661 -4.20898 -1.28264e-18)
(6.52752 -4.60896 -1.10174e-18)
(6.5372 -4.56964 -3.48155e-18)
(6.28439 2.34719 3.41576e-18)
(4.11853 -0.480269 -3.89494e-18)
(4.10402 -0.62496 1.46447e-18)
(6.15764 -4.12381 -2.16883e-18)
(6.78967 -3.50936 0)
(3.9456 -0.975778 0)
(3.99648 -0.918449 0)
(3.94903 -1.06295 0)
(3.10815 0.454392 -1.73442e-17)
(3.81803 -1.75095 9.0734e-18)
(4.18707 -1.33805 0)
(6.13015 0.122356 -1.66471e-17)
(6.33953 2.33256 -5.49963e-19)
(6.30868 2.26985 -1.96893e-18)
(6.35042 2.27403 -2.21638e-18)
(6.30031 2.32773 -4.33844e-18)
(2.94788 -1.66083 -2.05882e-17)
(5.69422 -4.19845 8.70229e-19)
(5.75782 -4.23921 -1.87683e-18)
(6.58511 -4.5628 5.27595e-18)
(6.65434 -3.92013 0)
(4.01599 -0.639646 2.67375e-18)
(7.51159 -3.37907 -5.07632e-18)
(7.47927 -3.56108 -1.10131e-18)
(7.28481 -3.00169 4.17241e-18)
(3.36698 0.12945 0)
(3.22783 0.366935 -1.72445e-17)
(3.21037 0.159826 0)
(6.66511 -4.64934 -1.97551e-18)
(6.50193 2.40903 7.82871e-20)
(3.05017 -1.92913 -1.37402e-17)
(2.97063 -1.73535 1.82489e-17)
(3.08376 -1.74852 2.20926e-17)
(2.90661 -1.92162 6.44071e-18)
(6.42895 2.39759 1.00638e-18)
(6.47595 2.37326 -1.37772e-18)
(6.45714 2.35288 3.03158e-19)
(6.45679 2.40864 3.57678e-19)
(4.04862 0.767033 2.87285e-18)
(4.01358 0.914654 -1.64119e-18)
(6.81309 0.28388 -2.54941e-19)
(6.72236 -0.870324 -3.3051e-17)
(2.87438 -0.727566 -1.9922e-17)
(2.85195 -0.966136 0)
(7.3022 -3.27463 -6.07184e-18)
(7.51215 -0.45909 -3.96072e-17)
(2.83684 -1.34237 5.78378e-18)
(5.82051 -0.846261 -2.0618e-18)
(7.10895 -0.241046 9.52414e-18)
(2.84261 -0.582622 0)
(2.94246 -0.569045 1.88423e-17)
(2.90816 -0.497595 6.72276e-20)
(2.88509 -0.622574 -5.43338e-18)
(3.58763 -0.067845 3.17575e-19)
(3.58491 -0.246195 0)
(3.37686 -0.0037818 -6.78106e-18)
(6.54561 2.44353 0)
(6.5291 2.42175 0)
(6.57698 2.42735 1.21961e-19)
(3.28817 -0.437969 0)
(3.12266 -0.450631 3.26309e-17)
(3.07079 -0.101721 0)
(3.08794 -0.324204 -3.53319e-17)
(3.1474 -0.174012 0)
(3.39914 0.5984 -6.41675e-18)
(3.63998 0.288803 3.7256e-17)
(6.19994 0.172099 -5.99931e-17)
(6.75735 2.10701 -6.7346e-19)
(6.37389 2.37032 7.87825e-19)
(6.40548 2.3942 -1.6161e-18)
(6.69265 -0.614462 6.1611e-18)
(6.74358 -0.395395 0)
(1.1468 0.42125 0)
(2.67312 -0.541348 -8.23697e-18)
(7.10993 -3.38365 0)
(6.81556 -3.57214 -1.42216e-17)
(7.10509 -0.258936 -2.1732e-17)
(7.13042 -0.243982 1.69563e-17)
(7.0627 -0.294481 0)
(6.2584 2.49315 1.1816e-18)
(6.3096 2.55742 5.68287e-19)
(6.9457 -3.96923 4.93727e-19)
(6.55516 -4.62781 0)
(6.62231 -4.63983 2.73756e-18)
(6.5433 -4.66609 2.81954e-18)
(5.25043 0.24266 9.97237e-17)
(6.50647 -0.478933 -5.51548e-17)
(6.52399 -0.597421 0)
(6.59473 -0.406595 -2.41702e-17)
(6.27469 -3.99677 0)
(6.45272 -4.02795 5.66212e-18)
(6.35754 -4.10058 -1.19411e-20)
(6.33123 -3.97897 -4.84735e-18)
(4.2231 -0.346019 0)
(3.97639 -0.114517 -2.11903e-18)
(3.89978 -0.319348 -3.2553e-17)
(4.23601 -0.20193 0)
(6.55797 -4.08085 2.63459e-18)
(6.61592 -4.17012 2.64868e-19)
(6.65804 -4.02576 -1.77164e-18)
(4.09357 0.458155 2.448e-18)
(4.03401 0.347527 0)
(6.38665 -3.60358 0)
(6.15221 -3.75973 -4.55174e-18)
(3.93523 0.429386 -5.43424e-19)
(3.63897 0.796056 -8.25961e-18)
(4.29653 -0.533968 -5.31402e-19)
(4.04672 -0.644657 1.79593e-17)
(4.19688 -0.665786 -1.14435e-17)
(4.21837 -0.432525 1.03649e-17)
(3.18977 -2.78497 -2.48832e-18)
(6.6794 0.256847 9.87613e-18)
(6.66749 0.228135 0)
(6.88122 0.142821 0)
(6.81493 0.176004 5.54965e-18)
(4.02742 1.178 0)
(4.07801 1.04206 0)
(2.88515 -0.181074 -2.34114e-17)
(2.8749 -0.0634626 1.5654e-20)
(2.80144 -0.207946 1.07769e-17)
(3.37902 -1.25004 0)
(6.73922 -1.79045 0)
(3.8982 1.63135 -9.37019e-20)
(4.02295 1.49853 -1.94682e-18)
(3.98063 0.99097 -1.56896e-18)
(5.54277 -3.96065 0)
(3.15234 -1.18572 9.10352e-18)
(3.23246 -1.0513 1.79273e-17)
(3.01824 -1.14493 0)
(3.55732 -0.50427 0)
(3.80818 -0.332213 4.21403e-17)
(3.64096 -0.297784 -5.18237e-18)
(3.78595 -0.498692 -3.06775e-17)
(3.10744 -1.45343 1.79544e-17)
(3.27087 -1.33573 0)
(3.17368 -1.2867 -1.8863e-17)
(3.23663 -1.46492 0)
(7.61432 -0.40455 1.41764e-17)
(3.68517 -1.40878 0)
(3.48093 -1.27621 0)
(3.65334 -1.21153 0)
(3.49241 -1.43113 1.50027e-17)
(7.04228 -2.63449 0)
(7.2695 -2.48416 -8.41849e-18)
(3.85068 -1.18878 -8.41711e-19)
(3.93221 -1.10906 0)
(3.92049 -1.1913 7.58218e-19)
(3.86848 -1.11682 0)
(6.90598 0.0811112 3.5023e-19)
(6.87023 0.0162996 0)
(6.52379 0.319011 3.24893e-17)
(6.88431 -3.90281 2.36564e-19)
(6.76837 -3.7631 4.32051e-18)
(6.92621 -3.808 3.85154e-18)
(6.73381 -3.87994 4.74216e-18)
(6.87934 2.07748 0)
(7.25226 0.444723 -2.81589e-17)
(4.52384 -1.53738 1.85964e-17)
(4.61109 -1.24291 -3.43117e-17)
(6.99432 -0.341822 1.70814e-17)
(7.08959 -0.271171 -1.15714e-18)
(7.01419 -0.315268 -1.12161e-17)
(6.86428 1.36962 2.10222e-18)
(4.05025 -0.199548 -3.33758e-17)
(2.08989 -0.193093 0)
(6.09286 -0.466467 -2.32193e-17)
(6.21026 -0.453766 5.33459e-18)
(6.43356 2.93248 -8.2913e-20)
(6.31766 -4.2265 0)
(6.35645 -4.15151 -2.14011e-20)
(6.42462 -4.18355 3.24035e-18)
(6.2811 -4.15993 2.89281e-18)
(4.28869 -1.22423 0)
(4.50687 -0.910181 -5.92123e-18)
(4.31387 -0.961272 0)
(4.51376 -1.15401 3.77222e-17)
(6.90489 0.113726 0)
(6.91438 0.0773156 1.31122e-17)
(6.90297 0.0951999 0)
(7.00338 0.0733162 5.28536e-19)
(7.00016 0.0924654 -1.59908e-17)
(7.56366 -0.180505 0)
(7.22851 -0.22211 -4.85307e-18)
(7.36454 -0.220737 4.98821e-18)
(7.40522 -0.178592 0)
(6.64138 0.185655 0)
(6.75382 0.0937993 -6.92045e-17)
(6.72109 0.164989 4.95492e-18)
(6.65619 0.135695 4.27214e-17)
(6.08215 -4.21494 -4.89073e-18)
(6.00424 -4.12493 0)
(5.97654 -4.20444 0)
(6.10673 -4.15904 0)
(6.28498 2.42886 1.19871e-18)
(6.31825 2.45312 -6.6495e-19)
(6.30522 2.38958 1.00211e-18)
(2.84864 -1.04764 0)
(2.75749 -1.15237 7.03467e-18)
(2.76473 -1.07131 -7.41551e-18)
(2.8542 -1.14743 -5.68856e-18)
(6.51715 0.213302 -9.21504e-18)
(6.39836 0.244082 3.67066e-18)
(6.46551 0.18727 9.20151e-17)
(2.28421 -0.30093 -2.17654e-17)
(2.10371 -0.0164512 2.35724e-17)
(6.94259 0.148913 0)
(2.14195 -0.195627 -9.81044e-19)
(5.40236 0.118021 -1.19537e-16)
(6.99572 0.0210183 4.49391e-17)
(7.01993 0.076458 1.89074e-17)
(2.25983 -1.12269 -6.87771e-18)
(2.49984 -1.17919 1.26431e-17)
(7.01153 0.117554 5.59779e-17)
(7.01033 0.0850565 6.11348e-17)
(7.00902 0.092248 -2.01416e-17)
(6.95838 0.205113 8.13276e-17)
(7.22689 -2.31623 1.57468e-17)
(7.00339 0.244304 0)
(6.05674 -0.0856135 1.52503e-17)
(1.55124 -0.26093 -2.75561e-20)
(2.08577 -0.318289 0)
(6.77857 0.236193 -5.63325e-17)
(3.75997 -1.21391 0)
(7.43583 0.0161194 -4.68286e-17)
(6.99971 0.144514 4.21746e-17)
(6.79882 -0.0138487 0)
(7.86587 -0.418076 0)
(7.33908 0.338053 0)
(7.32448 0.411377 3.15717e-17)
(1.6877 0.499504 2.02857e-17)
(7.73094 -0.291922 7.68649e-17)
(7.66915 -0.354821 0)
(7.13884 0.176901 -5.5975e-18)
(6.85216 0.281159 0)
(7.39103 -2.52719 8.60945e-18)
(6.09401 -0.0729435 1.33595e-17)
(7.17118 -0.167536 -1.21022e-18)
(7.11193 -0.216014 3.42071e-18)
(7.15384 -0.194118 4.71702e-19)
(7.57019 -0.231042 0)
(6.65293 -0.4406 -6.10566e-18)
(6.63039 -0.553671 8.4251e-18)
(8.09508 -0.225142 3.65638e-17)
(8.14508 -0.138471 -3.71776e-17)
(8.06159 -0.13268 8.09483e-17)
(6.95827 -0.125935 2.00394e-18)
(6.86367 -0.103511 2.17781e-18)
(6.97558 0.18181 2.40246e-17)
(6.97057 0.15609 2.35632e-17)
(7.00055 0.0234063 2.5176e-17)
(7.00303 0.0371238 5.50253e-17)
(6.41907 -0.364701 0)
(3.25829 0.51621 0)
(6.79507 -0.446852 0)
(6.77255 -0.565292 0)
(7.14443 -0.167671 5.37735e-19)
(6.98382 0.258664 -2.46233e-17)
(6.31054 -0.0861981 -8.1652e-18)
(7.00353 0.17226 -4.32196e-17)
(6.99338 0.212708 0)
(6.99246 0.194161 9.34981e-19)
(2.11719 0.320674 0)
(6.93661 0.115939 -1.2832e-17)
(6.94636 0.104644 1.26746e-17)
(7.46366 -3.35471 7.5378e-18)
(7.38141 -3.02512 0)
(7.41839 -2.9096 3.08944e-18)
(7.39876 -0.375453 -6.76386e-17)
(7.16723 -0.0551331 0)
(8.27673 -0.0265251 0)
(6.61702 -0.0614145 -2.5412e-18)
(6.57297 -0.0548204 -1.86841e-17)
(6.86792 -0.0590904 2.63028e-17)
(4.64237 -0.255841 6.34437e-17)
(4.85441 -0.253699 0)
(7.50185 -0.396824 -7.81915e-17)
(7.44515 -0.36908 6.14275e-17)
(8.06824 0.0352298 -3.44472e-17)
(8.16698 -0.119484 0)
(6.02097 -0.153882 0)
(7.06724 -0.00458222 0)
(7.1802 0.390452 1.07369e-17)
(7.15855 0.340432 0)
(8.06796 -0.138572 0)
(8.2731 -0.105311 -2.23899e-17)
(1.74783 0.56024 0)
(7.11421 -0.247727 -8.83978e-19)
(7.25222 0.00869219 0)
(4.61521 -0.734487 -3.05802e-17)
(7.22291 0.123047 3.50806e-19)
(7.2327 0.0810593 4.48224e-18)
(1.03511 -0.0876072 -7.95139e-17)
(3.72229 0.436635 1.52593e-17)
(3.56974 0.620499 -9.5259e-18)
(6.79804 0.213802 4.97406e-17)
(6.99741 0.0542015 -2.35039e-17)
(6.99263 0.0727949 -2.47737e-17)
(5.32036 -0.995735 -3.19296e-17)
(6.49698 2.0225 -1.90576e-18)
(6.15447 0.0130841 -3.4759e-17)
(6.02885 -0.0397937 0)
(2.71629 -1.21821 1.23863e-17)
(2.74395 -1.31598 -1.25525e-17)
(6.66052 0.0826748 -4.31345e-19)
(6.55164 0.00202099 7.3162e-17)
(6.6509 0.0154467 0)
(6.9997 0.0939659 5.08739e-17)
(7.00295 0.126333 1.97067e-18)
(2.48134 0.651925 0)
(6.96573 0.249606 -5.168e-17)
(6.60792 0.244098 -5.38593e-17)
(6.57606 0.315478 -3.20948e-17)
(6.86571 0.235015 9.6205e-17)
(6.90397 0.235806 -6.92612e-17)
(6.92086 0.199657 -2.75274e-17)
(7.30013 0.0560105 -5.39885e-17)
(6.27141 -0.0140364 2.36749e-17)
(6.38744 0.0467264 -5.83343e-17)
(6.17008 -0.174614 -1.34979e-17)
(6.28482 -0.0938298 -8.26415e-17)
(7.51934 0.010189 0)
(7.66919 0.0761751 -3.07733e-18)
(7.17695 -0.142476 -2.119e-17)
(7.87448 -0.0039023 5.4555e-17)
(6.59106 2.08869 1.19769e-18)
(6.9811 0.137767 3.28363e-18)
(7.04537 -0.316571 0)
(7.08411 -0.267577 6.12345e-18)
(4.30539 -0.43486 0)
(4.61114 -0.466983 7.07482e-17)
(7.46849 0.186755 -5.22446e-17)
(7.8232 0.155928 -2.63759e-17)
(7.52381 0.117097 -9.6193e-18)
(7.438 0.139386 6.19352e-18)
(5.66368 -0.116937 0)
(5.46905 -0.151294 0)
(3.45564 -1.52893 -2.0834e-17)
(3.25591 -1.54404 0)
(3.17848 -1.71594 -1.76778e-17)
(2.82094 -1.6817 -1.54944e-17)
(7.01671 0.0539962 -7.30338e-18)
(6.73276 0.203412 0)
(6.81266 0.191081 0)
(7.52202 0.0276702 0)
(7.85709 0.0345062 -6.35402e-17)
(4.05978 0.228747 -2.82861e-17)
(4.25416 0.183927 2.38979e-17)
(8.34481 0.0809501 -1.50883e-17)
(8.21315 0.144134 -1.9025e-16)
(8.07042 0.042906 -7.15508e-17)
(7.14423 0.0790306 0)
(7.70573 0.235999 0)
(7.03281 0.0817865 0)
(7.4188 -0.0496703 0)
(7.02385 0.18674 -4.68973e-16)
(4.90624 0.031997 5.28481e-16)
(7.45786 0.17649 8.73904e-17)
(7.40397 -4.01779 0)
(7.47458 -3.86201 0)
(6.98833 0.025447 -2.43995e-17)
(6.95219 0.0473616 -5.75168e-17)
(7.02185 0.0421002 1.89692e-17)
(6.937 0.0613962 8.36927e-17)
(7.90173 -0.259497 6.22919e-17)
(5.01285 -0.0321927 -4.45954e-17)
(5.17875 -0.0952478 -5.70522e-17)
(5.34535 -0.00538348 8.94451e-17)
(6.89438 0.123766 0)
(6.88246 0.147204 0)
(6.85315 0.182196 0)
(6.87437 0.173613 -2.84391e-17)
(6.83318 0.21521 0)
(7.00135 0.0626651 3.77176e-17)
(7.31121 -0.0716098 5.55604e-17)
(7.02346 -0.124808 -4.7304e-17)
(7.56749 -0.366454 1.05607e-16)
(7.6605 -0.30018 -7.06173e-17)
(7.63953 -0.279079 -6.51423e-17)
(7.61712 -0.262319 0)
(7.44755 -0.277652 2.4664e-17)
(7.51974 -0.302959 -2.45925e-17)
(4.76987 -0.0791268 -1.96089e-17)
(6.90721 -0.0365229 -6.94856e-18)
(7.81965 -0.230542 2.2732e-17)
(4.99613 -0.405849 0)
(5.16876 -0.349492 -2.53811e-17)
(5.37132 -0.353509 -4.37914e-17)
(3.2034 0.461296 9.09313e-18)
(3.22865 0.520273 8.005e-18)
(6.3957 0.105854 2.86936e-17)
(6.30434 0.135995 0)
(3.45783 -0.874151 -3.15971e-18)
(3.37429 -1.04399 0)
(7.69689 -0.10004 -1.57427e-17)
(7.85136 0.0309494 0)
(7.77786 0.110476 3.01133e-18)
(3.78388 0.885997 3.92912e-18)
(3.73776 0.876409 3.74138e-20)
(5.14546 -3.20246 4.8511e-19)
(5.16037 -3.28691 -4.44818e-19)
(2.62393 -0.908329 0)
(4.05353 1.89946 -1.18513e-18)
(7.95255 0.199829 -7.02275e-20)
(5.9419 1.085 0)
(6.54236 0.974877 8.17656e-20)
(6.23249 0.910875 -2.543e-19)
(2.51345 0.437923 0)
(5.9976 -2.26262 -3.72635e-19)
(9.50086 1.12249 -1.0423e-18)
(8.02854 0.438115 2.95755e-19)
(9.01372 -0.306469 2.35789e-18)
(6.55657 3.29483 -1.20861e-19)
(2.62506 0.461058 4.16155e-18)
(5.50815 -4.28966 9.20544e-19)
(6.99506 -4.83364 0)
(3.75309 -0.752851 0)
(9.43321 1.10642 0)
(5.43899 -4.20583 0)
(5.51351 -4.24519 0)
(6.12959 2.14275 5.07529e-20)
(6.13336 2.16142 0)
(6.48926 0.653672 1.58431e-19)
(7.13129 0.86164 2.66004e-20)
(7.12613 0.904023 -2.98291e-20)
(5.97511 1.00851 1.6973e-19)
(7.42312 -1.16503 1.3999e-19)
(7.45183 -1.25233 7.08319e-20)
(5.96058 -4.63102 9.84649e-19)
(6.27063 0.896774 -1.44031e-20)
(6.33452 0.859181 0)
(7.56939 1.05125 1.719e-19)
(7.47406 0.789964 -8.01246e-21)
(7.47593 0.827286 -2.39466e-19)
(7.179 0.907514 0)
(6.60376 -2.16623 0)
(6.60075 -2.11011 -7.08147e-22)
(3.52765 -2.2881 2.1233e-18)
(6.40376 1.07334 1.112e-19)
(6.39918 1.0418 -2.95984e-20)
(5.41057 -3.94949 0)
(1.543 -2.06118 3.42262e-17)
(3.93476 1.76004 8.20705e-19)
(3.99026 1.79143 -1.55518e-20)
(2.53902 0.0300937 4.4203e-18)
(4.01381 -1.65245 -1.94037e-17)
(6.03669 2.58678 4.9562e-19)
(8.68515 0.831372 3.95548e-19)
(6.63498 -4.79507 -2.34308e-19)
(2.34664 -0.95611 -1.58072e-18)
(6.67357 2.27939 0)
(6.77355 2.48868 -4.86325e-20)
(6.15338 -2.43647 1.60978e-19)
(3.41787 1.37859 -1.84447e-20)
(6.9782 -4.77977 -3.36222e-19)
(6.9951 -4.76709 8.55652e-19)
(6.13952 -1.55835 0)
(7.25834 -1.43459 0)
(7.07532 -1.70663 -1.46171e-19)
(6.96097 2.92544 -2.61113e-19)
(7.26614 0.636761 -1.07386e-19)
(7.336 -1.55817 9.07698e-21)
(6.34677 2.32589 0)
(4.88799 0.908793 0)
(8.43069 0.27378 0)
(6.03396 -2.39138 -1.06834e-19)
(2.87973 -3.46626 -2.56349e-20)
(2.99906 -3.24739 1.36557e-18)
(6.80247 -0.79858 0)
(6.81536 -0.901882 9.37958e-18)
(6.33875 -4.722 -1.03867e-18)
(6.91721 2.73241 -1.29914e-19)
(3.36268 -1.89164 1.32274e-18)
(7.90267 0.740118 -5.1358e-19)
(5.94611 -4.67723 0)
(6.49766 3.33909 0)
(6.4346 3.30123 6.96665e-20)
(6.08537 2.63809 0)
(5.03063 -3.24759 -4.43608e-18)
(6.59734 3.72661 0)
(6.74206 2.81595 5.31814e-20)
(6.64954 1.03569 0)
(4.20575 0.977282 5.84645e-19)
(4.18268 0.936385 2.8766e-19)
(6.16432 0.690066 4.9009e-19)
(7.81232 0.7769 0)
(7.80064 0.819674 0)
(7.88624 0.78639 5.07257e-19)
(5.62481 -2.74575 9.10937e-18)
(6.94941 1.11881 7.83184e-22)
(8.21535 -0.493325 0)
(8.19083 -0.409576 -1.04597e-19)
(2.32057 -2.00709 5.39079e-18)
(6.87724 0.879294 -1.44964e-20)
(6.89833 0.90788 0)
(2.69254 -0.130761 6.48445e-18)
(2.75431 0.0367437 0)
(8.4569 -0.200836 -8.08726e-19)
(8.44646 -0.147909 -5.3259e-19)
(6.24233 3.34141 2.91696e-21)
(7.09049 -4.77753 3.75822e-18)
(3.85707 -0.887704 1.73542e-18)
(6.81259 2.37494 1.774e-20)
(6.75836 2.69742 -2.00864e-19)
(6.38008 2.4639 1.47274e-18)
(7.81379 -0.765551 -6.73038e-21)
(2.66545 -4.4634 6.38291e-18)
(7.04713 0.915839 -1.86323e-20)
(7.04698 0.879664 1.04232e-20)
(7.6102 3.19793 3.92063e-19)
(7.27127 -1.58492 0)
(7.12841 -1.65679 8.16727e-20)
(5.7315 -4.59767 1.35887e-18)
(1.62401 -1.38581 -6.7735e-18)
(4.27319 1.49066 2.198e-18)
(8.27222 -0.813029 9.1581e-19)
(5.61703 -2.68825 -2.51478e-19)
(5.62738 -2.75943 6.16392e-19)
(4.10556 1.60795 -9.28267e-19)
(4.03428 1.74639 -1.23325e-18)
(7.35946 -1.48594 -8.04452e-21)
(7.33748 -1.4367 6.28147e-20)
(7.44027 -4.08797 0)
(7.95158 -4.97132 0)
(7.68998 -0.694078 2.66157e-19)
(8.13211 -0.405817 8.18574e-19)
(8.19486 0.950193 0)
(3.71908 0.966709 -3.6988e-18)
(7.40674 0.995306 0)
(7.79182 -3.19154 9.69416e-19)
(2.365 -2.08408 2.04922e-17)
(7.75033 -4.30284 0)
(6.48807 2.28625 -5.73305e-20)
(5.39119 -4.21087 -3.44488e-19)
(5.40109 -4.23107 1.43603e-18)
(6.26302 2.37361 0)
(6.29643 2.36622 -3.57519e-19)
(6.78864 2.25645 0)
(4.51403 -0.0343879 0)
(6.43046 0.592089 -9.84809e-20)
(9.11276 -2.70058 1.52867e-18)
(5.91773 -2.37342 0)
(6.57594 -2.74941 0)
(6.60536 0.842882 -8.81516e-20)
(7.14403 -4.3898 8.24183e-20)
(6.68462 -0.898975 1.71065e-17)
(6.93212 -1.20147 2.59593e-20)
(7.48847 -4.9118 -2.51487e-18)
(7.55094 -4.89473 0)
(6.04589 1.31714 0)
(2.17793 -4.09097 1.00244e-17)
(3.36684 0.635934 -1.85049e-18)
(6.7553 3.43851 2.29977e-19)
(6.33642 -2.09427 1.141e-19)
(6.10583 3.18025 0)
(4.23289 1.34727 8.29128e-19)
(4.30462 1.26434 1.58345e-18)
(7.24149 -0.716578 -3.55389e-19)
(5.86887 1.10376 3.1422e-19)
(7.01297 -1.47701 -1.05148e-20)
(7.01899 -1.55174 1.47573e-19)
(7.74002 1.09483 -2.02338e-19)
(6.52746 0.617242 -1.71258e-19)
(6.89887 0.814742 0)
(6.98487 0.80827 7.56073e-21)
(5.07216 -3.31198 0)
(4.89685 -3.35635 0)
(3.91958 -0.725348 0)
(2.67639 0.575944 -3.40448e-18)
(2.63891 0.539677 0)
(2.64839 0.686614 0)
(7.40871 -0.204705 1.02869e-19)
(6.8917 2.69646 4.56624e-20)
(7.61579 3.25183 2.24302e-19)
(4.01206 -1.54401 0)
(3.9527 -1.56549 7.50083e-19)
(4.91896 0.877738 0)
(6.64632 2.31357 8.98556e-21)
(4.27394 1.71905 0)
(2.54747 -0.906295 4.49013e-18)
(4.72911 -0.038459 2.27952e-18)
(4.78588 -0.052068 -9.79588e-20)
(7.89725 0.613838 -4.87736e-19)
(6.811 0.648705 7.85126e-18)
(6.69401 2.7351 3.33672e-19)
(4.5156 0.0975006 0)
(4.5382 0.034019 0)
(7.53551 1.46992 -3.97936e-20)
(6.5922 2.31264 0)
(6.74593 -4.79787 0)
(6.37073 -0.507032 -6.86986e-21)
(6.89822 -4.81754 -1.20197e-18)
(6.29017 1.00002 -1.18601e-19)
(6.28194 0.964023 1.79888e-19)
(3.75211 -0.671772 -1.01945e-18)
(6.63893 -1.56065 3.41903e-20)
(7.02263 -4.98674 -4.70115e-19)
(6.65633 2.23201 1.64559e-20)
(6.79515 -4.75359 6.31982e-19)
(7.09611 0.440234 -1.13226e-20)
(7.03643 0.442218 -4.46514e-21)
(4.18085 1.69985 -1.73691e-18)
(4.52811 0.829246 0)
(4.52297 0.885216 3.37101e-21)
(4.8926 -4.59727 7.22655e-19)
(6.4872 0.392118 0)
(6.47443 2.1757 1.40887e-19)
(6.01298 -4.65825 0)
(6.007 -4.68086 1.01087e-18)
(4.36254 0.617217 -2.61142e-19)
(6.74313 0.910947 0)
(6.81597 0.925215 0)
(6.59975 2.17161 1.34823e-20)
(6.75889 2.2828 -7.21107e-22)
(6.80436 2.3199 -1.84914e-20)
(4.78386 -5.11076 -3.75818e-19)
(8.1073 0.543711 -3.82795e-19)
(8.19268 0.537893 0)
(9.04951 -2.74399 3.08307e-18)
(7.22159 -1.55506 -9.68184e-20)
(7.21825 -1.48066 -4.43245e-20)
(7.13808 -1.59604 2.20812e-19)
(5.91182 0.495777 8.45461e-20)
(5.91203 0.554168 0)
(6.19757 0.355746 0)
(6.17855 0.308982 0)
(7.4273 -0.689466 0)
(7.46411 -0.656898 0)
(8.54098 1.01423 5.92235e-19)
(5.72239 3.38759 1.49203e-19)
(6.84469 2.93229 2.53021e-19)
(6.89343 2.91202 0)
(7.41652 -4.41077 5.18888e-18)
(6.03868 -0.319665 0)
(7.73409 -4.87404 0)
(4.54165 0.489433 8.62426e-19)
(6.74222 -4.77668 -7.0207e-19)
(6.66105 -4.77094 1.47481e-18)
(7.71529 -4.64013 3.47742e-19)
(6.12936 -1.73082 4.04678e-19)
(7.07045 -4.93711 0)
(6.56739 2.20258 3.16798e-20)
(6.52434 2.16565 0)
(8.16406 -1.78133 -5.34191e-19)
(8.11996 -1.11083 -8.85075e-19)
(6.94583 0.972417 5.46427e-21)
(4.42191 -0.145066 0)
(7.23354 -4.84824 7.91294e-19)
(5.88676 2.75339 0)
(5.81659 2.74066 2.24941e-18)
(6.75229 -4.81449 -1.75497e-19)
(4.67952 0.264724 1.5722e-18)
(8.2235 1.02365 0)
(1.70318 -1.75128 0)
(6.51979 1.66562 0)
(6.44115 1.76417 0)
(6.22319 -1.73342 5.83866e-19)
(6.64575 1.08308 2.47143e-20)
(6.57596 1.07724 -9.19549e-21)
(6.61111 2.58142 1.007e-20)
(6.57448 2.60652 -7.73789e-21)
(6.78076 0.602775 0)
(6.20807 2.4223 -2.41774e-18)
(8.90864 0.612231 0)
(8.79177 0.605347 1.55372e-18)
(6.16451 0.956514 0)
(6.18346 2.93149 0)
(6.21848 3.06779 2.49188e-20)
(6.9221 -1.04457 -7.11406e-21)
(6.67143 3.04936 -1.15766e-19)
(6.65151 3.18958 0)
(6.58233 -1.40243 -2.3868e-19)
(7.91293 -0.889403 2.40734e-19)
(8.03278 -0.783582 6.39195e-19)
(6.05589 2.18729 -1.88996e-19)
(6.10901 2.17218 0)
(7.56022 0.781224 -8.6065e-21)
(8.47687 0.833749 -3.61137e-20)
(8.48282 0.896672 3.35629e-20)
(6.44444 -1.6628 -3.49261e-19)
(6.35886 -1.76717 0)
(2.09541 -1.12434 0)
(5.69429 -4.4064 -1.15645e-18)
(5.57658 -4.36472 1.34355e-18)
(6.95919 -1.80097 -3.86941e-20)
(2.88402 0.516963 0)
(6.90595 2.77541 -7.94955e-21)
(6.87121 2.78724 1.1499e-19)
(5.20767 -4.13109 0)
(4.5014 -3.56962 -3.31293e-18)
(6.55502 -1.64714 -2.66179e-20)
(6.58219 -1.56892 1.04341e-19)
(6.47677 -1.63021 3.05664e-19)
(4.17001 0.550321 2.54372e-18)
(4.10225 0.659183 1.4459e-18)
(6.82823 -4.7299 2.11279e-18)
(7.63403 0.473237 2.69223e-19)
(6.80785 0.526821 -4.88868e-21)
(6.68085 -4.75953 0)
(6.65796 -4.74595 0)
(6.72349 -4.76319 0)
(3.04288 -3.07726 1.1849e-18)
(3.08194 -3.13048 3.35207e-18)
(4.90099 -1.18703 0)
(6.54671 -1.18845 -9.55343e-20)
(9.00008 -0.0198301 -2.67335e-19)
(9.03052 -0.0551315 0)
(6.07098 -1.0402 -4.3601e-19)
(6.08461 -1.11033 2.82444e-19)
(7.05917 -4.79561 -2.52064e-18)
(7.03088 -4.77973 2.30748e-18)
(7.0721 -4.82129 0)
(4.38166 1.04424 9.91122e-19)
(4.36849 1.15218 7.52145e-19)
(2.05484 -1.67586 0)
(6.86169 -4.80271 -1.48538e-18)
(6.88191 3.12066 -5.21382e-20)
(6.01586 2.29885 3.78856e-18)
(5.76939 -4.54842 1.06908e-18)
(5.77179 -4.57433 0)
(2.63512 -3.2925 -8.16491e-18)
(8.30613 -0.592609 9.24183e-19)
(8.01506 0.203381 6.71203e-19)
(8.14227 0.174896 2.0213e-19)
(6.34682 0.927201 -2.67787e-19)
(2.57807 -0.107055 -6.40387e-18)
(6.37131 3.08116 0)
(6.45826 3.08122 0)
(6.66804 -0.706147 -1.14993e-17)
(6.72299 -0.800207 0)
(7.02239 -3.58802 0)
(8.33114 -0.289444 -8.8254e-19)
(8.30601 -0.219629 1.31514e-18)
(8.05701 -1.02863 0)
(7.98899 -1.00079 -3.13345e-19)