/*--------------------------------*- C++ -*----------------------------------*\
  =========                 |
  \\      /  F ield         | OpenFOAM: The Open Source CFD Toolbox
   \\    /   O peration     | Website:  https://openfoam.org
    \\  /    A nd           | Version:  6
     \\/     M anipulation  |
\*---------------------------------------------------------------------------*/
FoamFile
{
    version     2.0;
    format      ascii;
    class       volScalarField;
    location    "200";
    object      nuTilda;
}
// * * * * * * * * * * * * * * * * * * * * * * * * * * * * * * * * * * * * * //

dimensions      [0 2 -1 0 0 0 0];

internalField   nonuniform List<scalar> 
29874
(
0.252081
0.207686
0.121564
0.155392
0.178708
0.24195
0.216598
0.141059
0.1529
0.141856
0.268497
0.258507
0.182311
0.263383
0.265011
0.282764
0.175474
0.275374
0.118826
0.141924
0.140659
0.143782
0.140502
0.153412
0.144503
0.176961
0.218765
0.143885
0.233805
0.233238
0.229226
0.195248
0.193877
0.220943
0.151391
0.158039
0.142211
0.162905
0.164079
0.200547
0.139889
0.139645
0.145178
0.133096
0.191345
0.160561
0.178312
0.245426
0.239452
0.240264
0.193453
0.290114
0.26681
0.278179
0.199118
0.192772
0.13484
0.16985
0.16608
0.172024
0.163779
0.1491
0.147475
0.167419
0.123466
0.189835
0.238627
0.176456
0.262513
0.283857
0.154938
0.148348
0.14438
0.10938
0.284134
0.228139
0.230731
0.225188
0.183053
0.164647
0.192236
0.117722
0.138207
0.146765
0.094426
0.108687
0.148801
0.140879
0.187971
0.163197
0.0681474
0.139447
0.13849
0.144834
0.133458
0.138142
0.135894
0.0974751
0.0587476
0.119028
0.150903
0.138542
0.138708
0.16759
0.211678
0.060552
0.0734293
0.154516
0.159001
0.143847
0.0730019
0.195634
0.204991
0.138404
0.138411
0.138708
0.134586
0.150562
0.000407509
0.14221
0.139714
0.178796
0.130185
0.120424
0.135353
0.138512
0.153188
0.146937
0.142026
0.134797
0.140007
0.136848
0.150299
0.143189
0.143551
0.143254
0.14624
0.133451
0.143928
0.233959
0.20061
0.172109
0.278595
0.169553
0.149498
0.152058
0.170755
0.182872
0.139764
0.275732
0.246311
0.240261
0.293874
0.128361
0.136516
0.140068
0.150053
0.162225
0.183736
0.185264
0.167147
0.181056
0.222352
0.16319
0.216354
0.190407
0.172028
0.150036
0.149167
0.154296
0.194275
0.173133
0.164478
0.0913397
0.0792663
0.15503
0.147926
0.000348271
0.147649
0.14484
0.000298062
0.000281002
0.160406
0.14297
0.140788
0.159236
0.138286
0.138593
0.140712
0.138509
0.138388
0.190753
0.144702
0.13921
0.170696
0.143239
0.141815
0.155009
0.000476106
0.000853669
0.15232
0.151242
0.176763
0.163684
0.140982
0.138858
0.140552
0.216622
0.146512
0.139792
0.142418
0.145679
0.133602
0.141544
0.143094
0.145952
0.145461
0.141976
0.145878
0.152908
0.235834
0.197667
0.197866
0.16225
0.139632
0.146007
0.151425
0.149343
0.161464
0.138978
0.139957
0.139993
0.137736
0.133263
0.1443
0.146345
0.135058
0.170867
0.159295
0.196075
0.19878
0.00570383
0.0376065
0.10101
0.107183
0.0410638
0.0406042
0.126553
0.131517
0.0976371
0.0808038
0.126812
0.117648
0.0937767
0.104972
0.048174
0.0966125
0.000340734
0.0961206
0.0954272
0.0861654
0.0933204
0.0964531
0.108737
0.115834
0.105993
0.110358
0.115212
0.111574
0.000522027
0.0432874
0.0417483
0.121151
0.124313
0.108426
0.0778245
0.0620388
0.000311351
0.1032
0.117353
0.115612
0.126453
0.126292
0.121736
0.121457
0.127914
0.125028
0.125172
0.0493057
0.0531704
0.0829633
0.0870218
0.0882697
0.12621
0.126247
0.102695
0.101802
0.0743377
0.120334
0.117594
0.119434
0.0715534
0.117107
0.0728489
0.0900627
0.0916316
0.0450917
0.127552
0.0673014
0.014206
0.103802
0.10441
0.0670797
0.0715696
0.0622858
0.0979107
0.0992652
0.111893
0.113864
0.111634
0.113262
0.115842
0.0424119
0.0416682
0.110099
0.107944
0.110792
0.138288
0.101803
0.102546
0.135761
0.136264
0.0769172
0.0704125
0.108449
0.0902842
0.111038
0.112539
0.112708
0.11103
0.0416736
0.0561182
0.0398437
0.0441499
0.0421001
0.0419344
0.116083
0.116157
0.111522
0.0895581
0.128065
0.124143
0.122924
0.125734
0.122227
0.106636
0.0496929
0.0498201
0.108051
0.000677789
0.118472
0.0382839
0.126354
0.0416837
0.0417678
0.0872353
0.0882775
0.086352
0.132004
0.0579798
0.0530911
0.0568988
0.0532607
0.139416
0.131229
0.0601691
0.0685056
0.066541
0.0605247
0.0708082
0.0406939
0.0401411
0.120578
0.13107
0.110119
0.110086
0.127359
0.113318
0.114905
0.11208
0.122749
0.125563
0.0340739
0.124787
0.118824
0.107795
0.105853
0.108676
0.104531
0.137869
0.109554
0.112079
0.113799
0.126562
0.122506
0.130219
0.0438283
0.0470234
0.0435725
0.0465782
0.0881168
0.0802755
0.083666
0.0856072
0.1366
0.0443155
0.0549516
0.0434489
0.0412517
0.0412463
0.0408223
0.0379418
0.0802907
0.0679519
0.085035
0.081087
0.079258
0.0874716
0.116128
0.115915
0.101049
0.100677
0.10494
0.0968855
0.0658432
0.105333
0.0947371
0.0553791
0.0718099
0.0664096
0.0748537
0.0687264
0.0715833
0.0508914
0.0480437
0.139286
0.139966
0.137863
0.136551
0.140347
0.0502386
0.0531522
0.047423
0.0784844
0.0891693
0.0832188
0.0975726
0.0998991
0.102339
0.0954721
0.121169
0.117987
0.121548
0.11677
0.0975624
0.0971243
0.0949701
0.0751504
0.150806
0.143843
0.147404
0.147939
0.0631908
0.112941
0.104258
0.103149
0.106735
0.048211
0.0454353
0.0517597
0.127528
0.058252
0.0649313
0.0620522
0.0607673
0.137996
0.0415352
0.0403395
0.0398287
0.0418155
0.166074
0.000544436
0.137745
0.194148
0.00081964
0.138563
0.167863
0.139507
0.139424
0.139479
0.170551
0.115141
0.137841
0.138614
0.118767
0.134405
0.132664
0.138291
0.136451
0.124501
0.138346
0.137968
0.115746
0.138532
0.138287
0.00999508
0.139097
0.142378
0.000226881
0.138435
0.138687
0.140523
0.114693
0.140287
0.120689
0.126075
0.134985
0.139245
0.132152
0.134479
0.127053
0.152685
0.128494
0.124083
0.132922
0.128971
0.138859
0.130308
0.127407
0.121655
0.11245
0.111981
0.000288093
0.0158159
0.157679
0.166449
0.138531
0.110326
0.111225
0.139152
0.134383
0.139744
0.1395
0.138313
0.126269
0.124723
0.125863
0.123264
0.139121
0.223674
0.126302
0.118531
0.116112
0.117415
0.138663
0.0322814
0.131476
0.132922
0.0999243
0.105891
0.0387511
0.149079
0.140509
0.235296
0.203458
0.138287
0.138551
0.138319
0.0947945
0.158609
0.146745
0.128099
0.126222
0.145561
0.118517
0.120272
0.117289
0.139816
0.127123
0.137052
0.133642
0.159204
0.148137
0.0731201
0.0674327
0.11816
0.119631
0.143165
0.140065
0.00070771
0.149678
0.181871
0.142153
0.140261
0.139876
0.139268
0.139795
0.126718
0.134221
0.138946
0.0548626
0.0543943
0.0578552
0.138972
0.137992
0.138239
0.137785
0.13997
0.143691
0.147922
0.124711
0.0412251
0.139347
0.137981
0.145447
0.153553
0.0497198
0.0458486
0.121565
0.11836
0.161098
0.218857
0.15916
0.177458
0.126202
0.125326
0.109934
0.113717
0.117125
0.0838573
0.0902761
0.137612
0.137436
0.137158
0.170985
0.141013
0.13876
0.138528
0.133704
0.13557
0.139165
0.138643
0.132247
0.132689
0.130714
0.139704
0.137416
0.146257
0.149832
0.000861159
0.0122206
0.116736
0.114047
0.122699
0.0613757
0.0573652
0.168022
0.170294
0.158117
0.0125255
0.0150099
0.130987
0.0876804
0.135371
0.0774919
0.128563
0.0269792
0.089742
0.0590277
0.108045
0.10702
0.127639
0.109182
0.111329
0.0952751
0.0951529
0.129862
0.0943695
0.112733
0.0743865
0.100633
0.122597
0.122132
0.119111
0.119158
0.122017
0.068633
0.00828818
0.0244166
0.0103617
0.00670233
0.0725534
0.110507
0.110808
0.115856
0.0561398
0.110549
0.0420235
0.116786
0.0662493
0.130068
0.0825151
0.0812398
0.0637726
0.0899907
0.106051
0.0362425
0.0436098
0.121257
0.0680383
0.0586168
0.0606255
0.0929792
0.106243
0.0912776
0.114271
0.0972828
0.0438206
0.11657
0.116906
0.126609
0.127081
0.110587
0.110411
0.0599775
0.112029
0.111989
0.0346372
0.128512
0.0616429
0.00174771
0.0624326
0.120497
0.0991453
0.00171808
0.00139222
0.124656
0.101259
0.0367619
0.00426402
0.0897095
0.0904742
0.114324
0.0943188
0.0946879
0.0932475
0.121268
0.0741499
0.0330219
0.0350798
0.106907
0.13027
0.130204
0.0757293
0.0701907
0.0738785
0.0731351
0.110021
0.119391
0.0764202
0.0846223
0.0462724
0.117827
0.032352
0.0507462
0.0538365
0.112797
0.118677
0.093552
0.124777
0.0920663
0.097291
0.127493
0.100453
0.0982209
0.129209
0.105606
0.128689
0.1286
0.0942914
0.0918724
0.0901957
0.10925
0.110571
0.103295
0.025396
0.0819977
0.00217709
0.0674004
0.11805
0.104341
0.10628
0.103182
0.0694426
0.0964659
0.0731893
0.126845
0.0227135
0.106991
0.115459
0.124572
0.118255
0.118179
0.0825369
0.0836192
0.118722
0.0981733
0.0922779
0.0573488
0.115247
0.130853
0.120707
0.0328721
0.0893933
0.0700664
0.0966225
0.111587
0.114683
0.11713
0.118465
0.0456999
0.0500778
0.12094
0.0719552
0.0730266
0.122084
0.120163
0.0892788
0.0625402
0.0604679
0.0910374
0.106023
0.109076
0.0428643
0.129587
0.130763
0.130691
0.114735
0.112136
0.119126
0.116537
0.104446
0.114324
0.114287
0.028614
0.0270474
0.0267866
0.11793
0.128561
0.12598
0.130133
0.123414
0.103293
0.106267
0.126683
0.107864
0.103086
0.112214
0.0784572
0.075839
0.129212
0.108403
0.0942473
0.12698
0.0961509
0.0932723
0.0822897
0.0888941
0.0770223
0.112813
0.111618
0.0261484
0.106473
0.0825778
0.0999431
0.0979799
0.104868
0.101156
0.0985896
0.0999437
0.0773203
0.101393
0.104798
0.100683
0.102504
0.101846
0.108816
0.117153
0.0252789
0.0710206
0.0812161
0.0822628
0.0515062
0.0508833
0.124311
0.0885053
0.112712
0.115232
0.116348
0.13033
0.0777308
0.0976986
0.100972
0.0409124
0.0899457
0.123222
0.0957076
0.0954227
0.0957111
0.120619
0.112831
0.0560349
0.117236
0.118873
0.0997311
0.114054
0.108585
0.0818092
0.0792382
0.115115
0.0997445
0.0756967
0.0456236
0.0474924
0.0145011
0.110046
0.109193
0.11278
0.0184612
0.102983
0.102002
0.123924
0.106238
0.087693
0.084718
0.125902
0.107616
0.0643303
0.0387191
0.125905
0.125914
0.118479
0.0797897
0.072942
0.121726
0.121704
0.122454
0.129288
0.0542326
0.105597
0.100811
0.0404882
0.100358
0.0622078
0.0640162
0.0601977
0.1208
0.126315
0.0516258
0.0499768
0.0907692
0.0165455
0.099157
0.042359
0.0467874
0.0395968
0.0792262
0.126779
0.0988011
0.100577
0.098934
0.0719759
0.123309
0.122101
0.119829
0.11969
0.109275
0.10763
0.0893906
0.0918981
0.0885624
0.0936239
0.0916765
0.0745559
0.119817
0.119851
0.115646
0.118686
0.0865797
0.0876236
0.0293133
0.0245296
0.101244
0.0768167
0.0709522
0.115942
0.110045
0.0769513
0.073603
0.0823223
0.0270681
0.0355927
0.09866
0.122827
0.125782
0.120148
0.073051
0.0961573
0.0924119
0.100808
0.100157
0.0989121
0.128791
0.105512
0.102826
0.116873
0.107573
0.0589086
0.0615938
0.0518773
0.0749247
0.120646
0.120163
0.0556396
0.0897779
0.13082
0.130974
0.130867
0.101572
0.0877884
0.0900144
0.106157
0.1045
0.117425
0.117603
0.0662791
0.113378
0.114964
0.112343
0.113987
0.08485
0.0827969
0.128545
0.128573
0.128095
0.128961
0.1111
0.112523
0.110765
0.0982424
0.111065
0.126207
0.0932869
0.0845846
0.00163053
0.12835
0.0760366
0.0736363
0.101179
0.0998232
0.101745
0.126057
0.125369
0.125913
0.0362127
0.0743149
0.0722131
0.0756217
0.080777
0.0815716
0.0792654
0.102729
0.106191
0.107561
0.128242
0.0289835
0.127596
0.0640604
0.0998233
0.106136
0.0904183
0.12211
0.0405714
0.113984
0.114024
0.108821
0.0683109
0.0644119
0.0719787
0.0844883
0.106124
0.103124
0.0870843
0.0829509
0.057108
0.0580172
0.0544601
0.0479212
0.127328
0.126953
0.0852127
0.08786
0.100906
0.0822279
0.0778072
0.0793149
0.11266
0.110555
0.111023
0.0248109
0.0384444
0.000856288
0.12463
0.123339
0.101414
0.0937112
0.000860375
0.0957943
0.0942499
0.098941
0.0930679
0.095898
0.0956697
0.0930291
0.123215
0.124362
0.117522
0.119479
0.0959507
0.0944018
0.12071
0.0374889
0.0945334
0.096813
0.000658082
0.126035
0.125492
0.126501
0.120669
0.0739025
0.0703796
0.0753239
0.0354535
0.0717358
0.0686715
0.123245
0.122686
0.131274
0.0931663
0.0939174
0.0930219
0.0995853
0.0981534
0.0984725
0.0364092
0.123917
0.123102
0.0911062
0.0906617
0.0920695
0.000594246
0.0793828
0.118436
0.116067
0.103052
0.101085
0.101685
0.102527
0.123563
0.12321
0.0623526
0.0552448
0.108038
0.00127934
0.130004
0.129494
0.126883
0.126786
0.127681
0.00116353
0.0921998
0.0869437
0.000418064
0.000655717
0.00427252
0.12918
0.129322
0.128867
0.11022
0.0831852
0.0885536
0.0949706
0.129099
0.104555
0.105598
0.104073
0.122201
0.121876
0.079971
0.000409457
0.0985834
0.121944
0.122443
0.118422
0.0322195
0.0315276
0.0984315
0.097222
0.0974586
0.091778
0.0915165
0.0942223
0.107906
0.000555338
0.052768
0.0389107
0.106305
0.103375
0.0489421
0.0448949
0.0920925
0.0933764
0.0661321
0.121891
0.122137
0.12114
0.118537
0.119386
0.0832385
0.0756441
0.112813
0.000412858
0.000296452
0.129555
0.085418
0.0830747
0.0340226
0.0347726
0.104152
0.0787329
0.0757359
0.0901616
0.106011
0.102315
0.122271
0.120429
0.05181
0.127159
0.0319419
0.130951
0.130835
0.116541
0.115778
0.0907343
0.0865696
0.000461563
0.00134702
0.116398
0.128465
0.128367
0.000453172
0.129675
0.130129
0.123611
0.121186
0.117512
0.120101
0.128634
0.08923
0.0932681
0.0942839
0.095115
0.0952756
0.0808293
0.0424969
0.0914103
0.0928862
0.0933467
0.0908294
0.0781444
0.0763911
0.101453
0.119565
0.118642
0.117639
0.130062
0.0932918
0.0948818
0.000561759
0.00194227
0.121546
0.12345
0.123399
0.121412
0.0834536
0.126196
0.126748
0.127054
0.115122
0.105677
0.105642
0.0357686
0.0322067
0.0344267
0.0331773
0.12399
0.125214
0.124296
0.125567
0.108875
0.110525
0.109354
0.110004
0.0840452
0.0853624
0.0869944
0.0825035
0.0822643
0.0877702
0.0821069
0.00049507
0.0018337
0.0935225
0.0931632
0.104807
0.102212
0.103131
0.103852
0.0625345
0.0720406
0.112525
0.11458
0.108599
0.0882811
0.0885626
0.091027
0.125648
0.123507
0.125892
0.123767
0.127035
0.126431
0.0732325
0.0718627
0.0853501
0.0852515
0.0876231
0.0851711
0.0842686
0.0882412
0.0950691
0.0932613
0.0936246
0.0943624
0.0432391
0.0339476
0.0857009
0.0877066
0.0875237
0.0856698
0.0866306
0.121054
0.120928
0.123668
0.0020021
0.0657404
0.0628343
0.0709372
0.0966442
0.097941
0.0935627
0.102907
0.0993301
0.0900161
0.0925697
0.115861
0.119077
0.114669
0.0974443
0.100392
0.099491
0.0905874
0.123576
0.123925
0.123103
0.124453
0.101814
0.0988994
0.102174
0.0901237
0.0927178
0.0901062
0.113411
0.114831
0.114811
0.113342
0.12827
0.127864
0.128455
0.110561
0.107727
0.108974
0.125256
0.100238
0.0980326
0.0982676
0.100095
0.121253
0.120737
0.119807
0.122097
0.0798997
0.0882313
0.0910996
0.0972485
0.0998536
0.0971915
0.0236949
0.0242373
0.126831
0.0713679
0.0459051
0.0517283
0.0949257
0.0929746
0.0411521
0.0541401
0.11433
0.112061
0.0958164
0.0973044
0.136922
0.137167
0.0507336
0.116715
0.113133
0.116503
0.124927
0.122541
0.0554496
0.103058
0.102136
0.0508172
0.0592281
0.126795
0.127126
0.126549
0.126897
0.126812
0.0233687
0.0231973
0.127559
0.126947
0.127354
0.126808
0.0643934
0.0716942
0.097225
0.0233433
0.117532
0.115394
0.0949024
0.097067
0.0954509
0.046792
0.0424201
0.0483406
0.123377
0.121238
0.0811053
0.0775483
0.0789237
0.102752
0.104448
0.103962
0.103178
0.125146
0.126125
0.125727
0.0490271
0.0488957
0.103688
0.101784
0.102127
0.0949713
0.0986009
0.124775
0.124675
0.125135
0.124273
0.111827
0.105595
0.10858
0.108962
0.0748807
0.0624135
0.0589442
0.116451
0.11502
0.115496
0.116083
0.0971919
0.0967304
0.0979039
0.096119
0.130658
0.130774
0.13079
0.113419
0.113313
0.114885
0.117823
0.11811
0.11859
0.117324
0.0322512
0.030454
0.0293364
0.0334628
0.0883622
0.0964333
0.0909343
0.0906771
0.111112
0.112638
0.111596
0.104768
0.102562
0.0927575
0.0895293
0.0909135
0.0913824
0.0367365
0.031772
0.0798107
0.0769361
0.0780748
0.0785928
0.0825019
0.0842839
0.0799713
0.103851
0.118857
0.0878579
0.0890999
0.100467
0.0982319
0.0995621
0.11108
0.107667
0.136302
0.073182
0.0731838
0.0707282
0.103325
0.0999107
0.101994
0.0962029
0.0950742
0.0968183
0.0943286
0.0943933
0.0951559
0.0947156
0.105031
0.10702
0.108961
0.0712048
0.0653633
0.0647982
0.0701843
0.0692124
0.0845683
0.0883802
0.0874777
0.0852603
0.0831927
0.0745943
0.0806525
0.0906072
0.0917191
0.0920937
0.0903863
0.0687396
0.104989
0.0719843
0.0730312
0.0692669
0.129062
0.128459
0.128936
0.128693
0.100883
0.1025
0.102873
0.100601
0.103904
0.103209
0.105783
0.00994959
0.00915713
0.0103608
0.12264
0.122652
0.121486
0.12226
0.119472
0.111467
0.111305
0.129964
0.0891585
0.128844
0.117852
0.107833
0.111276
0.110618
0.108704
0.129547
0.129341
0.0831564
0.0855038
0.0816917
0.10079
0.101559
0.10255
0.0960627
0.0977522
0.0963474
0.0972472
0.0375557
0.0369857
0.0388538
0.0354912
0.0573577
0.0502639
0.0533718
0.105367
0.107307
0.104749
0.127174
0.12653
0.100114
0.100531
0.0794293
0.0738284
0.0744243
0.0751759
0.0726391
0.0741741
0.0840875
0.107623
0.109841
0.10919
0.108223
0.102142
0.108549
0.12067
0.120881
0.120937
0.117913
0.127874
0.128131
0.12679
0.120772
0.121245
0.120526
0.0894039
0.0914515
0.0896642
0.0910951
0.0966004
0.0983397
0.124314
0.125504
0.12612
0.120222
0.120575
0.119371
0.0875798
0.0893617
0.0864528
0.0967376
0.0990207
0.10093
0.095109
0.0162698
0.0195647
0.111797
0.0805062
0.0719306
0.0279369
0.0881473
0.0874559
0.0907619
0.000401431
0.0221323
0.115319
0.11618
0.116508
0.130149
0.130272
0.115997
0.0453393
0.0783981
0.0785074
0.0794309
0.0773131
0.117492
0.116967
0.118992
0.0998901
0.096801
0.0984463
0.126429
0.12686
0.0871014
0.0846285
0.0852812
0.0865739
0.112151
0.110996
0.113183
0.0927483
0.0921065
0.0932057
0.0917766
0.0710597
0.0711731
0.0977283
0.0920983
0.115771
0.056496
0.0547076
0.0548423
0.0562984
0.0586038
0.0505419
0.12038
0.117442
0.119746
0.117855
0.117382
0.129637
0.129654
0.0852603
0.100202
0.0998502
0.0993549
0.100856
0.0969328
0.096007
0.0976151
0.0392871
0.0396427
0.124092
0.125498
0.123236
0.111338
0.112657
0.111239
0.11265
0.0700849
0.06926
0.111463
0.108813
0.113026
0.0986462
0.0979653
0.0974691
0.101049
0.103836
0.102481
0.102259
0.105644
0.105988
0.0617806
0.104885
0.102958
0.104415
0.10358
0.120838
0.115915
0.0777359
0.0767992
0.110566
0.111819
0.111798
0.110535
0.126473
0.125603
0.126063
0.126052
0.119193
0.103936
0.106578
0.111639
0.115635
0.114566
0.112422
0.103276
0.106003
0.120344
0.107386
0.105827
0.108581
0.11586
0.114541
0.115318
0.115159
0.029078
0.0903063
0.0865826
0.0567789
0.0502903
0.12676
0.125332
0.126527
0.126191
0.0486605
0.0120647
0.104926
0.10344
0.0612286
0.0914085
0.0908854
0.0903308
0.0967131
0.099342
0.0741263
0.0772086
0.0449325
0.0404662
0.0878475
0.12574
0.12397
0.125985
0.129447
0.101458
0.0981591
0.100286
0.105476
0.103815
0.105372
0.10382
0.122973
0.124199
0.0823406
0.0846588
0.0854428
0.0866972
0.083311
0.0773688
0.0789392
0.0761044
0.0802342
0.13855
0.0905197
0.0886733
0.0905518
0.0883897
0.0487321
0.0926179
0.0838172
0.0891928
0.0878941
0.0988956
0.099341
0.102309
0.0958997
0.13781
0.138
0.114315
0.1163
0.116178
0.0450079
0.0420183
0.0748238
0.110595
0.108845
0.10904
0.110329
0.116435
0.117273
0.0224576
0.0856781
0.0789293
0.0730992
0.0780045
0.0731251
0.097491
0.0951935
0.0990204
0.000100756
0.124523
0.124911
0.123781
0.109083
0.0996252
0.128185
0.102341
0.115617
0.116941
0.1156
0.0950393
0.095075
0.106421
0.108372
0.106577
0.10905
0.117077
0.118166
0.115659
0.116779
0.117704
0.116544
0.12031
0.114843
0.113144
0.113478
0.114597
0.0460404
0.0437942
0.0467582
0.0436598
9.87947e-05
0.108576
0.110314
0.110176
0.0649395
0.0632619
0.0679438
0.0277023
0.00681145
0.0948198
0.121153
0.122084
0.123391
0.123503
0.0866479
0.0883214
0.0851189
0.103017
0.103953
0.102311
0.104561
0.109334
0.116535
0.117793
0.117479
0.116843
0.0822398
0.0817767
0.109774
0.108939
0.0963891
0.0955501
0.0960833
0.0956485
0.065553
0.0708171
0.0671473
0.0797918
0.0804226
0.0785064
0.0816352
0.122393
0.119071
0.118909
0.122026
0.0544693
0.124445
0.122856
0.123398
0.0271883
0.0453585
0.0428624
0.0446767
0.0429646
0.0926042
0.0975018
0.0918371
0.0994556
0.100987
0.100131
0.0970007
0.0942818
0.0933736
0.0946275
0.0888901
0.0985406
0.121117
0.120382
0.121076
0.120405
0.12008
0.119176
0.119634
0.119645
0.0946245
0.0966337
0.0958883
0.0951976
0.0201491
0.0185253
0.0223753
0.029019
0.0518232
0.0495268
0.0974751
0.0949427
0.0958743
0.0965693
0.0892961
0.108674
0.108273
0.107543
0.109562
0.129424
0.135591
0.134402
0.134696
0.135029
0.124545
0.126449
0.124736
0.0293353
0.0398526
0.0406896
0.127703
0.128044
0.127422
0.109997
0.110223
0.1116
0.000251605
0.123054
0.119537
0.121408
0.121879
0.127884
0.128531
0.127508
0.0917233
0.0930387
0.0922028
0.129211
0.115278
0.116573
0.115406
0.116395
0.000152625
0.125694
0.123355
0.125565
0.122989
0.0683167
0.0651511
0.0698761
0.101024
0.102719
0.117861
0.115867
0.0381943
0.12026
0.119326
0.119531
0.120057
0.11548
0.126277
0.125712
0.000614417
0.12151
0.121212
0.0937592
0.0965695
0.0951817
0.0950771
0.0542837
0.0487704
0.0530574
0.0508901
0.0867578
0.0896582
0.133168
0.111727
0.113672
0.112789
0.112621
0.0916835
0.0917206
0.0741671
0.0781247
0.0860209
0.0800038
0.0906379
0.0934863
0.0917512
0.0924482
0.00121719
0.0897229
0.0900076
0.0870047
0.0926498
0.122633
0.12286
0.123099
0.067434
0.0614629
0.0914995
0.0916255
0.128571
0.100221
0.100858
0.137039
0.130152
0.0850777
0.0846161
0.0855927
0.0838829
0.133404
0.138147
0.0590953
0.029721
0.0279896
0.0206924
0.0896566
0.0111588
0.0374404
0.038142
0.0466467
0.113331
0.0995772
0.138584
0.0185619
0.00876654
0.00686225
0.00594264
0.138559
0.138413
0.138435
0.138252
0.0328624
0.124761
0.119881
0.122094
0.117675
0.127771
0.125606
0.123284
0.123726
0.0116291
0.0269669
0.000379856
0.115269
0.000362246
0.0158439
0.000332163
0.0287891
0.019132
0.130524
0.100921
0.0739318
0.0559285
0.0673549
0.000288913
0.139171
0.00832658
0.00749546
0.010342
0.109836
0.00621465
0.149678
0.145074
0.00925642
0.138443
0.00017647
0.052323
0.0485366
0.0088483
0.0113711
0.0418657
0.120602
0.114908
0.0376444
0.137118
0.137236
0.088232
0.0683758
0.0671613
0.0983862
0.118339
0.135621
0.136227
0.0632996
0.0604901
0.129284
0.0194378
0.00337574
0.000312194
0.120198
0.11849
0.0024536
0.0151252
0.0634938
0.00044213
0.000291364
0.00599697
0.12105
0.114385
0.117729
0.118161
0.00356709
0.0596778
0.0233635
0.00037289
0.0383241
0.113889
0.117736
0.0694582
0.0228515
0.0123352
0.0113686
0.130354
0.0929504
0.131719
0.129231
0.130579
0.168357
0.0137168
0.133207
0.0135994
0.0176489
0.00211321
0.112586
0.0059833
0.0314718
0.0103375
0.0650809
0.0612742
0.060554
0.028513
0.0333573
0.0310184
0.0418132
0.0404722
0.0321165
0.067108
0.0272238
0.0287928
0.00325645
0.00672561
0.0581826
0.0404501
0.0417248
0.00492447
0.00586324
0.0349177
0.0379302
0.0400405
0.0403031
0.0412759
0.00548968
0.0154007
0.0325329
0.000415282
0.000647878
0.00105403
0.0148661
0.000687377
0.0013717
0.000377791
0.00079401
0.0186244
0.00140102
0.081808
0.0449226
0.0983993
0.0346331
0.0128613
0.016172
0.0777814
0.0265877
0.128434
0.0597721
0.110727
0.0267639
0.116128
0.000832151
0.0195184
0.132719
0.0139604
0.1001
0.0931666
0.132896
0.13205
0.0811484
0.0338927
0.138315
0.123028
0.124074
0.0531835
0.125106
0.124352
0.13184
0.0116203
0.0140706
0.0101959
0.0176881
0.0197225
0.0180891
0.0300837
0.0110666
0.129623
0.0308187
0.012026
0.0155658
0.015551
0.0203558
0.0330959
0.0346939
0.0491145
0.109987
0.0311087
0.000392915
0.137627
0.137493
0.0405762
0.0397365
0.0393589
0.0391505
0.0474251
0.0982841
0.0559747
0.00727558
0.00136478
0.0210685
0.0893123
0.0829945
0.121245
0.116098
0.00934624
0.00989911
0.134038
0.0928033
0.0378764
0.0682879
0.0689205
0.0163091
0.097832
0.137961
0.0153186
0.0185786
0.0501581
0.1365
0.136842
0.0602747
0.0529525
0.0170889
0.126939
0.127144
0.0533767
0.048401
0.0209689
0.0235349
0.134858
0.136076
0.0846988
0.151172
0.144386
0.138511
0.138354
0.026876
0.100541
0.0177562
0.0127047
0.118956
0.0180723
0.0167009
0.0174147
0.0412814
0.124849
0.0180967
0.0201319
0.0356333
0.00851313
0.0102691
0.128383
0.0231416
0.0298579
0.0245539
0.0641183
0.136629
0.136733
0.00692545
0.114951
0.000578853
0.0522402
0.112747
0.114189
0.0899808
0.0387845
0.0381686
0.0217145
0.0331496
0.041881
0.0914508
0.0392706
0.228395
0.185424
0.000357597
0.0334999
0.034187
0.0325893
0.0323174
0.0199354
0.00620435
0.103968
0.0359154
0.0939138
0.0949119
0.0886635
0.0390642
0.0344182
0.113331
0.121788
0.124943
0.138017
0.138107
0.0586156
0.0346571
0.0581121
0.0651329
0.0679083
0.0991024
0.092534
0.107017
0.084169
0.0741739
0.0590678
0.112407
0.0625103
0.0619513
0.0638723
0.065999
0.0882526
0.04118
0.114418
0.113314
0.10409
0.138384
0.110992
0.108839
0.130432
0.125704
0.0293015
0.0597931
0.0459882
0.119385
0.117895
0.128126
0.024989
0.0287087
0.0701589
0.0870665
0.0292709
0.0544156
0.0500677
0.0982765
0.097776
0.0992479
0.090587
0.0394911
0.0328106
0.0342239
0.0430286
0.0552573
0.136582
0.136971
0.136539
0.13695
0.0378206
0.0366281
0.113333
0.051163
0.04985
0.0385084
0.0368106
0.0360981
0.0398883
0.0405635
0.0404125
0.137666
0.135986
0.135422
0.0963366
0.102457
0.090585
0.136084
0.0568386
0.0526522
0.0346823
0.10199
0.275457
0.214344
0.240118
0.113398
0.111153
0.115325
0.0395583
0.0387441
0.0368962
0.00337541
0.214156
0.0324917
0.101653
0.106745
0.105333
0.103051
0.00382756
0.135785
0.136369
0.0340424
0.0710058
0.11746
0.138745
0.138777
0.11897
0.12134
0.00030935
0.074518
0.113694
0.124883
0.12248
0.123433
0.000621644
0.109323
0.116761
0.104516
0.13709
0.136709
0.0791668
0.0685748
0.0721444
0.032971
0.0697338
0.0934365
0.0941817
0.0924545
0.0961822
0.000398096
0.117992
0.117537
0.0227811
0.00717655
0.10543
0.110413
0.121866
0.117835
0.0724945
0.0697682
0.0382879
0.133438
0.0840072
0.0813866
0.0851001
0.0842576
0.19673
0.186442
0.0853928
0.083476
0.0807773
0.022077
0.0291604
0.0420281
0.0452273
0.047037
0.082743
0.0580997
0.0905542
0.0887251
0.0626906
0.117221
0.119964
0.00168621
0.0513924
0.100258
0.101343
0.102698
0.0403634
0.0431044
0.116592
0.138403
0.0295439
0.100628
0.10941
0.106506
0.122438
0.121992
0.0300532
0.134995
0.0379367
0.00765239
0.108037
0.10985
0.110539
0.11219
0.110879
0.0950724
0.100817
0.0773964
0.0734352
0.0291954
0.0308405
0.0352371
0.0334455
0.0264514
0.0220935
0.0248251
0.0790388
0.0661851
0.0623465
0.00866114
0.106241
0.0755369
0.0748534
0.0770398
0.0282656
0.0603918
0.124755
0.123603
0.0868142
0.0898765
0.0885522
0.0417297
0.10383
0.0135166
0.00171112
0.138824
0.105132
0.0568197
0.0532166
0.0569658
0.0458999
0.0304563
0.00114615
0.140891
0.112106
0.113775
0.0293449
0.0342606
0.124092
0.0699433
0.0673254
0.0308169
0.110885
0.0805277
0.0156334
0.129672
0.131383
0.097473
0.0983014
0.118666
0.00127973
0.0120778
0.089366
0.0329108
0.0479419
0.0520237
0.0414106
0.0415625
0.0851817
0.0864027
0.0923399
0.0420923
0.0427167
0.121855
0.120025
0.138763
0.138688
0.0912996
0.0894156
0.0196107
0.0512056
0.0449247
0.042146
0.0427404
0.0665502
0.0643375
0.0243589
0.0568312
0.0492099
0.101975
0.1066
0.120608
0.118265
0.0956847
0.13838
0.138236
0.0986493
0.0968666
0.0988357
0.0975194
0.0702035
0.0652401
0.104806
0.0436164
0.0473008
0.089134
0.0930921
0.0933186
0.0916432
0.102709
0.101222
0.0845205
0.083378
0.0827828
0.120936
0.121653
0.122076
0.0393959
0.0390069
0.126407
0.134526
0.135119
0.03122
0.018823
0.129449
0.127112
0.0386539
0.0734291
0.0790187
0.0770493
0.118573
0.136646
0.145169
0.00602754
0.0805866
0.0803045
0.088702
0.11734
0.0326797
0.139114
0.140711
0.128612
0.0286688
0.0299415
0.0913095
0.0926579
0.08854
0.0874049
0.09483
0.0932784
0.032977
0.0299134
0.106455
0.109952
0.139175
0.139107
0.139262
0.115977
0.0903628
0.128283
0.0572824
0.0614779
0.0716577
0.0684942
0.0322998
0.0863986
0.0855811
0.10586
0.107429
0.0689102
0.122
0.0625337
0.0439686
0.138292
0.138081
0.102172
0.120184
0.118886
0.119055
0.11951
0.0343625
0.0380814
0.110501
0.0803705
0.0832794
0.0994886
0.1546
0.166161
0.101286
0.1378
0.137473
0.0599986
0.0659203
0.138432
0.11634
0.117643
0.117106
0.0554702
0.0592677
0.0582783
0.0626011
0.0840827
0.0811153
0.13417
0.0114374
0.095815
0.0955719
0.0928847
0.0992161
0.028269
0.115312
0.11688
0.115127
0.0709298
0.0674964
0.0695517
0.121532
0.117383
0.112917
0.126955
0.127818
0.127431
0.13322
0.134494
0.134
0.0977031
0.0957994
0.0973291
0.0991454
0.0372429
0.0339461
0.0383552
0.116678
0.103511
0.109497
0.114333
0.110375
0.138788
0.130473
0.128375
0.0522572
0.0562253
0.11718
0.119694
0.0910872
0.0900732
0.0898319
0.121582
0.124046
0.11755
0.114513
0.103842
0.103796
0.123792
0.124635
0.125685
0.0975049
0.0949377
0.136707
0.137053
0.137242
0.116762
0.113953
0.113281
0.128913
0.129953
0.126293
0.127076
0.0293721
0.117769
0.116912
0.0944707
0.0949786
0.0431614
0.0463867
0.0915634
0.0937384
0.093212
0.12833
0.202005
0.256413
0.069928
0.0032997
0.0661087
0.000750811
0.0891722
0.0896446
0.0874689
0.0414315
0.132892
0.137916
0.138001
0.122658
0.123688
0.0803073
0.0792158
0.138431
0.130887
0.130743
0.0269684
0.136134
0.137096
0.137487
0.122024
0.121397
0.131644
0.106708
0.104523
0.126716
0.122913
0.131207
0.131333
0.0900321
0.0902517
0.0831746
0.0853444
0.0308628
0.0953819
0.1005
0.18139
0.153684
0.0964492
0.0964604
0.118007
0.111692
0.129682
0.129692
0.155303
0.142098
0.142167
0.0784472
0.0774068
0.0789329
0.100706
0.100178
0.0276995
0.135051
0.140852
0.127194
0.127921
0.127497
0.0779204
0.0764198
0.116971
0.123543
0.119445
0.0789829
0.0832629
0.0796342
0.0811218
0.118501
0.117029
0.0386669
0.0409365
0.124421
0.123125
0.0680859
0.0700958
0.0732536
0.10875
0.112802
0.107997
0.0381889
0.121461
0.116104
0.117295
0.0895746
0.0902018
0.0887873
0.0654423
0.0703081
0.151535
0.0414112
0.0428602
0.10398
0.104085
0.0730723
0.0741934
0.0754374
0.0775451
0.0749805
0.0728213
0.106275
0.104639
0.03564
0.0369888
0.0738738
0.0773351
0.0799042
0.106687
0.112263
0.0457413
0.0645268
0.0673529
0.0358035
0.0340251
0.0364708
0.000532084
0.137177
0.136317
0.135462
0.138242
0.138513
0.128836
0.0255208
0.0240453
0.0189454
0.0216473
0.0592729
0.0723882
0.0676197
0.0621828
0.0983146
0.0964941
0.0854458
0.0792787
0.0762984
0.293244
0.245789
0.0418332
0.139034
0.14374
0.0791196
0.1381
0.0389885
0.0412719
0.226439
0.205771
0.180253
0.137994
0.138199
0.138465
0.138374
0.113841
0.0563608
0.133288
0.132744
0.118848
0.128016
0.127034
0.106597
0.108124
0.111668
0.0136002
0.0172089
0.0561206
0.0593706
0.0469595
0.0489037
0.043038
0.0405709
0.0455268
0.0418416
0.040265
0.0420754
0.10903
0.107585
0.113884
0.11718
0.112451
0.0134706
0.0172319
0.0102883
0.139308
0.139446
0.139577
0.137474
0.0198483
0.021947
0.104637
0.134012
0.121732
0.117291
0.117037
0.138787
0.138805
0.139017
0.129039
0.142779
0.144754
0.0238298
0.127461
0.102269
0.0230853
0.0269889
0.108645
0.0216005
0.065694
0.127004
0.00394313
0.126902
0.127985
0.118213
0.101851
0.115149
0.11444
0.00998232