/*--------------------------------*- C++ -*----------------------------------*\
  =========                 |
  \\      /  F ield         | OpenFOAM: The Open Source CFD Toolbox
   \\    /   O peration     | Website:  https://openfoam.org
    \\  /    A nd           | Version:  6
     \\/     M anipulation  |
\*---------------------------------------------------------------------------*/
FoamFile
{
    version     2.0;
    format      ascii;
    class       volScalarField;
    location    "200";
    object      p;
}
// * * * * * * * * * * * * * * * * * * * * * * * * * * * * * * * * * * * * * //

dimensions      [0 2 -2 0 0 0 0];

internalField   nonuniform List<scalar> 
29874
(
2.91964
0.150216
0.201696
-2.89561
0.17509
-4.55624
-1.13173
0.750816
2.59209
0.558992
-2.4185
-0.0485794
-2.02601
-0.288065
-2.1721
-4.34322
-2.9394
-3.27095
0.411956
0.0220528
3.25293
-1.7834
1.17878
0.930512
3.75856
-0.733922
-2.04072
0.124369
0.381585
-2.53736
-2.34846
-3.39996
-0.573545
0.867865
2.68574
1.25718
2.73485
-1.84241
1.23879
-1.26002
0.984888
1.15082
1.39245
3.16939
-2.26158
1.52321
0.943306
-0.875105
-2.97205
4.15419
-0.274416
-2.39184
-4.05206
2.65465
-0.308932
-0.799098
-0.61667
0.89632
1.83466
-2.18415
-0.73318
2.13532
1.47624
6.10948
0.246164
0.842382
0.130975
0.953431
0.497772
0.466011
-2.02666
-1.54231
7.57605
0.490992
1.29652
-2.63694
-0.913828
-2.36629
4.37862
2.36149
-3.03007
-0.355914
0.992427
-1.44071
13.2856
11.2961
0.518532
0.317018
-1.7028
-0.939625
16.5929
1.13543
1.19636
-0.62879
0.0921259
2.79657
0.455855
13.3083
17.775
-0.318903
-0.260661
0.516242
0.931482
4.46395
6.20371
17.7023
16.0707
0.130285
0.632096
0.275802
16.5361
-1.52039
-1.64934
1.08546
0.99881
0.993465
1.81049
1.45376
21.0777
1.6263
1.30031
-3.05224
-0.111924
-0.178719
-0.138468
3.17207
-1.17371
1.23059
1.58575
3.47928
0.7279
2.69792
2.3281
1.11155
0.717454
1.49863
0.991177
-0.172085
-1.53444
3.44803
0.925599
1.47124
-0.644684
5.52742
0.873921
2.83077
-1.29514
2.12707
0.590904
1.91623
-2.00109
-0.723136
-3.18414
-0.221913
-0.614088
1.12566
3.54635
-2.01734
-1.64833
-1.77429
-1.3662
4.16991
7.01507
0.77341
0.555517
0.884687
0.457009
3.09802
3.63268
0.905283
0.646496
0.529071
0.717331
14.5532
15.7544
0.698998
0.444052
16.9795
3.5878
3.64418
16.2974
16.496
-1.35039
3.14627
3.85271
-4.16189
0.451638
0.515302
-0.137758
0.914199
0.924266
-4.43135
3.10188
3.21158
3.07819
1.71026
1.39138
-0.369057
16.1592
16.227
-1.45553
-5.03721
3.21547
2.70501
2.11923
2.60876
2.12045
-5.87836
1.92551
2.03052
1.98052
0.431727
4.6289
3.18199
-1.28921
1.27725
0.580888
0.421642
0.436428
0.650847
-0.655513
-4.26831
-0.531173
2.00117
0.798966
0.54233
-0.308277
-0.126177
-0.490645
0.788485
0.812988
0.758975
-0.0271632
-0.533779
3.07724
3.19254
3.9602
-0.614833
0.350024
-0.639956
-1.82424
21.0867
19.5029
5.60587
2.88123
19.632
19.916
-4.14183
2.79691
-5.62592
14.642
2.39332
-2.43659
15.5282
0.19674
18.6974
15.291
21.2074
-5.85278
14.6452
-3.68967
15.4029
15.081
-2.92137
-2.81244
-4.96017
-4.88919
3.96636
4.19549
22.7582
19.13
19.4497
-1.4937
-2.08424
-1.07893
7.63052
-6.47835
16.1344
5.83342
0.0209393
-1.03562
0.359558
0.886371
2.7595
2.42993
4.2378
1.45894
1.0115
18.5108
18.3159
8.3592
5.20212
5.35702
-3.13498
-3.58065
14.74
14.7031
-4.72707
-1.91169
-2.22255
-1.64916
16.3294
3.96359
16.8004
5.23768
4.34553
18.7573
1.96808
-5.1867
16.0728
-7.39946
-7.46346
-5.41803
-5.89426
-5.83547
14.8998
14.8061
-2.96466
4.52135
4.65587
-3.50223
-8.26491
18.9355
19.3334
5.20681
5.34249
5.56786
-0.52387
14.9429
14.5816
3.36772
2.75279
14.6163
14.2936
-7.08963
-4.81822
3.51841
2.82446
2.8621
2.52389
19.4128
-5.66077
19.3939
19.0611
19.1449
19.2299
2.52053
3.0282
-7.89033
4.94583
2.33461
-2.69576
-2.62417
-2.98489
-2.34727
0.387917
18.7323
18.5493
7.37699
21.7205
-2.10411
20.2458
-2.56859
19.2087
19.3548
4.96769
4.98786
5.1984
5.79321
18.2635
18.4942
17.8255
18.3367
0.854694
0.605047
17.9598
17.0509
16.8666
17.6183
16.8158
19.5233
19.8425
2.95906
2.84929
4.1464
3.71525
-0.763582
2.47441
2.39403
1.89322
-3.26179
-3.59492
19.7766
-2.43863
-2.56381
-7.48972
-7.17138
-8.28185
-9.06917
2.73447
-4.40206
-4.43945
-3.82044
4.01884
3.96773
3.60855
19.2307
19.0324
19.0595
18.898
14.3338
15.4556
14.7162
14.4288
1.73749
17.1637
16.7586
18.148
18.8204
19.1951
19.3983
19.4987
15.7395
16.9336
14.4734
15.4356
16.2395
14.9964
-0.699174
-0.00436588
-3.91156
-4.22553
-4.22869
-4.90489
14.3309
-3.14795
-3.3186
12.019
13.7425
17.2757
16.6798
16.6023
16.2035
18.1195
18.2521
1.57035
3.92788
3.96025
4.2412
3.283
18.2576
18.0044
18.8061
13.845
13.3135
13.8554
-4.88963
-4.45616
-4.87567
-4.91363
-2.78966
-2.45986
-3.97421
-4.08422
15.6629
15.0909
15.4791
7.90907
0.954708
0.852562
0.900459
0.803811
7.7432
10.692
5.44278
5.43126
4.99625
18.0474
18.3835
17.4823
-0.882223
18.3106
17.3658
17.5266
17.6529
1.12029
19.3157
19.7901
19.4864
19.0391
-1.88521
21.1609
-4.28675
-2.21468
16.8355
-0.454315
-2.25975
0.586856
0.655468
0.668358
-2.54107
-0.761223
2.49294
2.18877
-0.349765
5.26272
5.80624
3.99703
4.33481
-0.893208
1.41713
1.53089
9.78812
1.00464
1.08999
15.8824
0.592089
-3.98971
21.3318
-0.215567
0.947297
-1.07081
9.57592
-1.629
-0.816429
-0.709708
1.21078
0.601897
-1.8271
-1.94548
-1.94011
-1.87305
3.22157
3.28287
0.250472
0.34127
-0.363862
4.47644
2.50917
2.55583
-0.282803
-0.333817
21.2922
15.7886
-1.22456
-1.19785
-1.75035
-0.284575
0.134533
3.08097
-3.35698
0.754239
0.846081
-0.0907089
-2.36641
-1.96079
-1.82862
8.60952
0.641924
-4.03004
-2.15057
-0.383607
-0.35015
-0.376958
-0.593551
17.1301
-2.66231
-2.43059
12.93
12.2312
19.6271
-3.77127
-0.758608
-6.40327
-4.09716
-1.11412
-0.851457
1.16409
12.6352
-4.23785
-4.89497
6.95956
7.92791
-0.429593
3.34411
3.30549
-0.568583
0.640022
0.953709
0.764054
0.972969
-4.54378
-5.14017
16.6245
17.0031
2.93222
2.45753
3.65795
4.00709
21.1993
0.293029
-3.95324
1.92453
2.08681
2.2831
0.588798
0.647974
1.38002
1.38676
1.26581
17.3186
17.64
17.2364
1.82129
1.87228
1.73395
2.04565
-5.33562
-4.82144
-4.6155
-0.446089
19.6778
3.65641
3.50408
3.20402
3.56915
16.9739
18.0509
8.58183
9.52355
2.99603
-0.177701
2.60914
2.17731
-3.28101
-3.23082
11.5312
10.806
10.0578
15.3822
14.8099
1.71972
1.81144
1.98113
-2.25791
1.42317
1.10488
4.11351
4.78981
4.47926
-0.705872
-0.86269
5.59668
5.70639
6.31792
0.858139
-2.95653
-2.8411
-2.70193
20.9419
15.8226
0.0937038
0.229511
0.514134
17.2825
17.5096
-0.805907
-1.24606
-0.439424
-14.997
-14.352
6.05822
-10.6021
2.94076
15.2167
4.34995
20.2407
16.0755
8.62926
7.02092
6.2171
-6.2814
4.04931
3.74083
3.62018
3.47734
5.66412
-3.90471
-2.13007
16.6092
14.1189
3.63938
3.32508
-9.05669
-9.27904
2.35395
-5.7689
23.6535
20.6105
19.3433
19.4534
6.78639
-0.415659
0.0767875
10.8819
16.9497
-0.610449
20.7253
1.6006
17.1286
5.74146
13.2976
13.8877
7.44231
-4.83816
-10.1811
16.5476
16.5208
2.61243
-9.65924
8.81354
9.1591
0.198133
2.33764
-3.97162
0.918393
2.22351
9.2223
-0.326937
-0.696222
-6.8736
-5.85052
-0.426976
-0.114355
-10.1931
3.89679
4.26876
-9.42168
4.23784
-9.23234
-34.7686
9.52108
1.77474
-3.28268
-32.634
-16.349
3.52761
-4.98714
-12.5676
14.6004
9.00832
9.27389
1.13918
15.5023
15.4187
4.18799
2.789
9.33768
19.8839
19.8213
-3.16131
5.31825
5.3291
-10.0665
-10.7388
-7.46326
-6.57818
-2.46543
1.6125
11.5754
12.2356
5.8235
1.08506
-6.69116
8.51178
8.19457
13.4229
12.564
-5.73415
3.31822
-3.44946
-2.72273
4.15229
15.1549
15.1277
4.92232
-2.41032
-5.42479
7.17392
-12.497
-10.8805
-11.0979
13.2617
13.4444
-4.25034
-25.0089
-11.1446
16.2577
-17.3425
3.66278
3.52247
-2.80986
-3.80124
9.59971
15.3029
14.9711
3.61448
-20.9668
-0.922177
-0.483315
3.2019
5.11436
5.39333
-6.97138
-6.76172
4.31019
13.748
4.72195
7.89508
0.966544
6.04442
1.57339
21.9124
15.6599
-2.7329
-5.14053
-2.04719
-1.50968
12.5803
11.9383
-3.11486
-3.51539
1.7958
-8.15
-8.09309
-8.16576
-8.49613
5.75201
7.42658
7.52752
4.62455
-3.57049
-2.77216
5.87738
7.00142
6.62098
6.27513
0.536139
0.0735618
-4.23838
-4.13479
6.09351
-1.12156
-1.04095
20.1525
20.3296
20.2544
-8.15946
5.95147
4.07684
6.828
5.48173
12.9171
12.9622
-4.57334
-2.37602
3.8694
2.21424
-8.2962
-8.92825
5.62094
-3.4943
-10.9794
3.45386
-3.19805
-3.4471
-9.86924
-10.2107
-17.0325
12.5129
13.4478
16.227
4.28733
-11.3006
4.36917
4.52619
6.95679
7.77922
-4.93494
-5.10633
-3.87302
4.40604
3.92688
4.57427
4.79794
4.44526
-1.07284
10.7863
-20.4619
6.78323
6.03262
6.22394
-9.799
-9.97476
3.17133
14.2885
-2.73158
-3.10625
-3.21953
5.34934
15.268
3.50108
4.65729
-22.3854
12.2904
11.8019
3.39196
3.45571
3.16064
1.40995
-1.39374
-19.8743
0.102486
0.792327
-2.33114
-8.82035
-9.2354
-3.151
-16.9267
-0.0368115
-10.6635
-10.1852
16.6956
16.5335
23.471
-9.33288
-9.00712
-8.56229
20.8071
12.7638
12.4288
3.22936
-9.70668
-7.27904
-7.86176
3.87884
-0.645041
10.9603
19.4784
-4.33734
3.65979
-0.0120465
8.5703
8.89839
1.9128
2.04485
2.28616
-3.86781
17.9444
-0.0314397
-0.112384
21.7168
0.965459
-4.46886
8.05469
8.39052
-8.2586
10.831
8.21848
8.32346
14.8278
-6.76537
-2.92583
10.3324
-8.21943
-7.99784
6.08023
4.51522
14.3452
14.4143
14.9033
11.6185
3.06422
2.15695
0.84394
1.01277
-2.80342
-3.32097
-7.00356
-5.83637
-6.4542
13.8968
14.0265
15.3426
0.865319
1.14748
-9.35704
-9.04473
-7.93396
-8.27381
-7.47649
-6.98986
-1.54936
-4.53335
-4.2802
3.1056
2.7055
15.2083
15.827
-8.48213
20.3423
17.3705
15.0091
-4.4221
-4.18517
-7.8309
-9.43739
2.78959
4.16596
5.05133
5.19509
4.67903
-4.40478
2.7012
2.54207
4.14469
-3.03415
-4.65202
-4.95855
-4.70224
7.52212
-3.5097
-3.35004
10.3139
15.981
5.41905
5.85298
5.52027
14.8114
11.9443
12.1497
14.3582
14.5029
-0.153086
0.398306
7.29352
-0.00535426
0.356277
-1.75317
-1.71719
15.2603
15.2685
-6.2024
-6.06229
-6.07133
-5.53221
-2.02498
-1.00912
-1.46549
3.88819
-1.66246
4.30565
12.888
-5.40247
19.6189
-5.16545
15.8522
16.3201
3.46046
3.73436
3.46418
3.35496
3.24888
3.65698
19.6582
7.21282
7.31718
7.08594
5.95246
5.6364
5.84973
4.32267
-3.69524
-3.32735
5.63666
22.7342
4.45385
-7.80449
2.97812
13.3137
-1.72961
4.44409
-12.0139
-1.14724
-1.05961
-4.52577
11.2159
10.711
11.5721
6.06583
1.78003
1.77416
6.49629
6.70227
8.67905
8.41779
8.70007
15.1992
5.10341
4.69509
-7.51759
-6.86669
4.33252
-7.21126
-7.63965
-7.10881
-1.78103
-2.35117
-1.51436
19.0207
-9.96724
23.4845
3.40169
2.89373
2.42075
5.09808
22.5815
14.7296
14.7916
4.08643
14.6497
14.2777
13.8949
13.9207
2.54834
2.90969
12.302
12.1357
-10.5151
-10.6973
2.12058
-4.25602
-2.89463
-2.12628
23.6641
4.24517
3.88842
4.23593
1.53559
-9.25985
-9.26688
-8.9345
-9.4586
-11.4765
-11.5317
2.77668
2.53761
5.49646
3.97728
3.83295
4.09478
4.49523
4.16192
4.51008
19.5901
3.49813
2.98532
4.45106
4.60739
4.42563
23.7703
16.4827
0.738888
-0.839872
3.88614
4.39548
3.6222
3.81782
3.1835
2.64941
15.3946
16.0028
4.45903
21.6794
5.29112
4.9373
-4.42644
-5.54465
-5.24101
19.2759
7.17965
7.68899
23.8748
19.6398
19.5757
7.21284
7.14401
7.15404
-1.02215
-4.68239
-4.09092
6.85485
4.43258
14.1249
14.2408
14.2329
2.62583
2.08816
15.2356
19.8475
8.32935
-5.91361
-5.42873
-5.08864
20.0026
19.9892
3.57929
3.49527
3.5943
5.4367
5.19601
5.27269
12.9056
23.8545
8.80848
19.607
7.06278
7.34354
-8.12712
-8.56441
15.9097
15.2789
7.72643
2.59964
2.28993
1.73636
0.357805
1.17612
-8.99132
-8.78362
-1.34334
19.786
23.9411
-5.4559
15.6917
15.155
-12.6153
-12.3755
13.4512
-7.20313
-7.77034
15.2833
1.12035
0.74612
11.8136
12.1467
-7.89509
-6.88869
19.9492
6.07379
6.21337
-0.673553
-0.850776
-9.20514
-9.13069
23.89
23.8677
-9.00755
4.77088
4.58279
23.7784
4.92865
5.1306
11.3505
-4.60393
-4.08813
-4.16132
5.0344
6.49251
6.39413
4.39541
4.28253
3.9854
-7.99055
20.8388
5.78933
5.98181
6.02393
6.29111
6.00278
6.24231
1.70783
4.18096
0.499443
0.478217
6.89907
4.74101
4.52797
20.6608
20.9118
-6.35246
-6.29343
-7.4862
-7.63917
14.1729
-6.5518
3.74089
3.89661
-1.24197
14.1915
14.1614
19.8128
20.1238
19.7373
19.7788
3.11595
11.3069
11.1864
10.8133
-3.11321
-2.64489
-1.97068
-1.53752
14.7363
13.993
15.6711
16.3063
-6.4041
-6.63793
-7.37131
19.7609
19.7063
15.4861
15.2535
13.2587
13.5166
13.3699
13.5068
-15.0146
-5.67022
0.181982
0.193831
-4.14039
-3.95513
7.64858
7.33822
-5.1501
-5.85231
-4.20385
-3.86823
4.51693
4.32094
6.85327
7.1356
5.16736
5.25501
14.1132
14.1938
13.3154
13.3242
3.83703
4.02542
4.20101
3.93582
-3.5397
21.0586
5.65541
5.66376
5.37782
5.77105
9.61834
-7.0114
-5.97761
-6.1503
0.00792252
-7.59131
-7.51029
-7.22794
13.1461
12.7761
12.9746
-4.57439
3.26665
-3.86105
-2.50987
-6.88714
-6.17561
-6.5327
14.1275
14.0538
14.2208
-7.49949
-7.75587
-7.47867
-8.02763
-7.15092
-8.6749
-8.2843
-9.07678
14.1751
13.8897
13.4259
-1.72887
-1.23231
0.185957
-0.306173
4.66217
4.67385
4.76297
2.0064
1.94725
1.56383
3.89432
3.67623
3.91115
3.66227
3.50892
-7.45088
-7.56415
-8.432
-8.05135
-8.74446
-6.6122
-5.91362
14.3314
14.2204
13.8274
-5.58519
-6.15909
-1.65246
14.6623
-5.92153
-6.07819
-6.01459
-6.36902
18.9766
18.182
12.8607
12.9362
14.8473
14.5739
2.04553
1.86556
-6.32632
-5.76083
-4.99816
-4.92975
-4.19921
-4.23688
-7.66081
-1.81053
-2.26088
-8.19896
-8.16159
-2.124
3.87574
3.568
3.85225
3.85574
-24.7158
-24.4997
-5.30315
-5.00617
-4.35213
-4.0211
-9.62947
6.75113
3.47037
-24.3291
12.5995
12.9134
5.84281
5.59426
5.35526
18.7579
18.9419
18.7174
-4.63336
-4.19437
6.7446
6.97196
6.799
3.41593
3.16359
3.10926
2.7952
3.38783
3.58712
3.50608
-9.30574
-9.55351
13.9712
14.0315
14.0661
0.109671
0.0496421
3.12375
3.35576
3.59454
3.00395
-6.35584
-7.26222
-6.40719
-5.7964
-5.32577
12.959
12.663
0.18551
-0.433029
-1.00515
-0.430226
15.7175
15.458
14.7214
14.8724
5.56817
5.63903
5.57714
-1.72456
-0.717815
-0.154405
0.910682
1.10321
1.01402
0.403771
16.0034
17.3228
16.8377
16.9086
16.2023
-5.31406
-6.22719
-5.52544
12.5643
12.4935
12.1855
14.3592
15.0421
-5.26745
-6.14105
-5.74098
-5.64159
-8.06321
-7.36721
7.45499
7.56576
7.295
6.92244
7.44267
7.86499
7.73111
4.22302
4.01301
4.86382
4.62974
13.5742
13.8082
13.6054
0.724659
0.146717
2.24294
7.96858
7.6539
8.07893
12.753
12.7999
12.9986
-5.48768
-5.91661
-4.27464
-5.24917
3.71978
3.62738
3.90579
-6.00634
-5.28441
-5.66276
14.6781
14.5525
16.0027
15.7367
15.7132
14.4986
14.4168
14.0974
13.9695
14.8976
14.745
14.6824
4.85096
4.47298
4.8421
4.91685
-9.77865
14.8228
12.9593
13.6783
13.1366
-6.10463
-6.51033
-5.23931
-5.4695
-1.90843
-1.70945
-2.54887
-2.87265
14.9184
14.5781
14.1409
21.4422
21.346
21.4292
2.77292
2.70106
2.43654
2.55937
12.0566
6.53905
6.26875
4.66975
-3.69112
-3.61136
1.39898
-9.11059
-8.96052
-7.8427
-7.4666
-5.36168
-5.66457
7.18836
7.14264
7.30913
14.8641
15.0485
14.7317
3.88679
3.8949
4.13339
3.85794
19.5385
19.5955
19.4597
19.7425
-6.77614
-6.91716
-6.19646
3.62446
3.87467
3.81606
4.96021
4.22902
3.15376
3.19362
-7.65983
-8.24141
-7.54057
-7.97174
-7.86014
-8.09722
8.93207
13.1947
12.7704
12.8537
12.994
-3.76857
-3.43833
3.56118
3.19286
4.35245
0.408253
-6.06492
-5.3355
-5.72423
1.88743
2.7853
1.44911
-7.21499
-6.89713
-6.22332
-6.13276
-9.15798
-9.16464
-4.74239
-4.42377
-4.52747
1.4053
1.10362
0.295111
4.92957
4.77559
4.98054
-7.33309
-6.67995
-7.00366
-7.53821
-22.4022
-21.6579
0.133921
-5.24881
17.0893
20.148
7.21831
7.08911
6.9953
15.1318
-25.5301
0.5587
0.98769
0.544104
7.05872
6.91401
0.816503
17.3851
6.38368
6.13112
6.36031
6.70849
2.24017
1.74099
1.90522
-4.56587
-5.60236
-4.99905
3.50873
3.85843
6.21665
6.50362
6.11772
6.2286
0.627289
0.537547
0.697698
4.09449
4.35265
4.52078
4.55563
-9.51167
-8.62442
-10.2572
-9.64315
1.75111
8.1777
8.09266
8.05603
7.8395
-7.51199
-7.50831
-6.24971
-6.9215
-7.46022
-7.7272
0.880379
-4.94939
-5.16898
8.40983
2.76011
3.35643
3.36628
3.09852
14.8498
15.1712
15.2411
-7.11163
-6.7258
-6.51843
-7.14693
-7.56877
-2.43
-1.9707
-1.04269
-0.491095
8.51818
8.23203
-3.5346
-3.68125
-2.94906
3.90669
3.91629
3.67865
15.2061
14.7821
14.6585
15.3601
14.3596
14.4614
8.57311
-0.705719
-1.24049
-1.95243
-1.8906
-1.41524
-1.46696
16.0443
16.0769
-3.09294
-2.06632
-1.49143
-1.44206
4.33047
3.86713
4.27862
4.35696
-2.11095
3.08222
2.77933
-6.9657
-6.86165
-7.21612
-7.51502
-8.9879
-9.30336
1.80084
3.15586
3.64635
3.50818
-0.384962
-0.939402
-1.10481
-1.06842
20.1322
15.6408
16.0105
-10.4431
-11.1415
-4.11779
-4.56998
-4.02098
-3.22863
-20.9869
-6.7341
3.37619
3.31783
-17.1627
4.3252
4.39148
-7.1731
6.91466
6.56809
8.636
8.52477
19.0493
19.3243
5.19672
-6.07494
-5.566
-5.46824
4.68386
-3.94962
-4.31182
-4.36834
-1.7627
-2.34158
-0.842402
-1.06222
2.93611
2.65393
16.4158
-7.57223
-7.18474
-6.4953
-7.15936
15.3166
15.0873
16.3757
16.6021
3.22965
5.68365
5.71101
5.57551
6.09347
18.8302
-4.78514
-4.87269
-4.16078
-3.49251
-5.73981
-6.38538
-7.23529
-7.50426
1.52037
1.4525
12.7799
12.3968
12.6764
-7.12902
-7.32336
-5.21108
-2.71733
-2.99673
-1.70156
-1.50249
0.141148
-0.55439
21.9352
14.8264
-6.33021
-5.9385
-6.0632
-6.97248
15.3212
15.2813
15.3973
15.818
3.42096
3.56501
3.3379
1.32985
1.32417
4.14028
-4.67287
-0.990345
0.352754
0.0148953
3.64163
3.83128
-2.61971
-2.04601
-3.21308
-3.73856
-9.61862
-9.11696
-10.1486
-0.482289
0.642582
-0.304179
3.6872
3.4663
3.93102
3.01691
3.47407
18.7324
19.0327
18.9087
19.1974
21.2852
-2.00227
-1.40702
-2.24528
8.66579
9.07396
8.66913
20.2666
21.4176
7.62092
-7.72191
-7.83342
2.6744
2.82484
-11.3425
-11.8222
-11.4459
4.02694
4.41775
4.91942
4.4598
2.24489
-0.446623
-0.224851
0.618866
0.889336
5.78185
5.8103
12.8344
12.95
3.67627
3.65605
3.4317
3.73327
-7.46167
-6.84228
-7.92671
-8.44605
-8.19561
-7.97135
-7.3183
-3.82169
-3.86871
-5.55119
-5.0479
-7.89554
-7.8863
-8.47458
-7.64622
18.4514
19.0493
19.3055
18.8011
18.9662
-8.63663
-8.14291
-8.19484
3.39268
3.44017
3.27933
4.80983
4.91111
-2.56516
-2.80158
-3.28701
-3.45309
1.40457
0.856327
2.48226
2.16827
1.57368
1.0603
1.34498
1.48961
4.13942
3.98081
4.03486
4.44621
-6.95359
-6.90655
-6.98908
-13.6711
16.3713
16.6629
-2.46951
-2.95986
-3.34713
-2.93865
-7.1894
1.20133
0.434255
1.07864
1.08005
5.78886
4.67334
5.40149
5.00753
4.56993
-7.02704
-5.951
-5.8945
-9.75524
19.7904
19.4428
4.26712
4.36898
3.98091
3.22061
3.33662
3.36778
22.7327
-4.20046
-3.90315
-4.20963
2.40343
-6.17667
-6.45395
-6.9718
15.0272
15.1819
15.0665
-5.59899
-1.12453
-0.535198
0.379335
0.697486
16.1739
-4.599
-3.75183
-2.83985
-3.52422
9.2673
9.33697
9.11048
14.4578
14.1875
-8.02795
-8.09076
19.6365
1.14303
0.312159
1.4306
2.07017
-3.13879
-2.95065
-2.93564
11.0837
1.39428
1.42811
4.26784
4.39223
4.44701
4.42428
18.233
18.7464
18.4901
18.7542
16.2893
14.5661
-7.38207
-1.72399
-1.12905
-1.46446
-1.5444
14.2648
14.7735
13.2993
14.0228
-5.47565
-5.92091
-3.56261
-3.20712
-3.95573
-4.09123
11.2648
-6.52532
-6.7273
-7.39388
-7.8869
2.73259
3.67717
3.70428
-10.3889
-10.267
12.9913
12.8631
4.30389
14.5317
14.4563
0.686659
5.26023
5.67375
5.45731
5.49636
5.88466
-4.96876
0.258728
-15.5097
20.5809
20.7111
16.0428
-15.8914
21.1343
21.4246
21.253
-20.7079
1.42186
-13.5908
-0.0146566
21.2213
21.3302
21.2638
21.3577
-1.66536
0.0380207
0.063131
0.126138
21.0578
-1.79793
-1.67377
5.569
6.26764
-3.45785
-3.80905
0.112076
-0.414311
16.2236
20.5863
16.7342
-0.304285
16.2073
21.4581
21.2599
16.7689
21.408
6.5583
4.52283
-14.8902
17.2658
15.6582
18.8128
0.458524
21.2071
21.3006
21.192
0.165753
21.3325
-3.69297
-4.05311
21.4293
-3.60694
21.3429
0.0291097
-0.24523
21.0747
15.7421
18.4144
1.30621
-1.47758
21.2946
1.07334
0.854828
-15.8682
15.6329
16.2966
3.06448
-0.696481
0.718848
0.932766
-18.2989
-18.7939
7.05646
-21.6775
20.7518
23.456
0.691742
0.371079
16.7701
15.9554
-19.1179
20.9128
21.3123
16.2113
9.28874
10.8356
10.1103
-5.56868
16.0303
7.33228
21.5947
22.0631
21.4637
7.48345
6.92867
17.6527
21.8243
15.8769
15.9823
1.11952
-3.17323
5.78878
6.74713
6.14375
-3.16847
16.081
-0.206755
20.9036
20.7517
20.882
6.02298
15.7346
19.9608
16.0986
17.3099
17.2324
17.1023
20.2416
20.473
20.559
21.3737
21.7746
20.4916
16.9817
20.6635
20.6106
20.9306
20.038
17.7932
21.748
21.5355
21.3133
21.3128
10.4218
10.6671
21.5273
21.6965
21.7879
20.8137
-26.9643
20.6403
15.6815
22.1362
22.0288
21.4548
15.8938
16.0723
17.2357
17.0718
22.5234
19.8346
4.65632
-20.0142
-10.8228
20.3433
-23.0463
-22.2251
-11.3072
20.384
4.10307
16.4574
-1.20676
20.3062
5.30779
16.0311
20.6088
1.61136
21.0697
0.417777
0.0606943
2.11656
2.4291
16.0961
22.1996
-2.54981
1.12514
1.43741
16.1373
-8.62071
-9.07172
2.92418
23.5787
19.2725
21.5063
20.7344
20.7634
20.602
20.6382
23.5618
3.81276
20.0933
23.4768
23.3866
19.1901
19.0758
20.1793
20.212
7.34403
10.0889
21.1907
20.9738
1.62333
1.66062
21.3888
21.4205
20.2599
20.2873
17.7037
4.88287
-6.98683
15.6754
15.772
18.9892
-2.27079
-2.51623
-0.674623
-0.272067
15.8574
15.7617
2.11749
-11.9022
20.1414
16.7529
16.3005
23.3257
1.72486
0.294854
16.0975
16.3264
15.9006
-2.80872
-2.61892
17.1275
17.1611
23.1698
-1.66299
-1.83761
16.8319
17.1418
18.793
18.8386
2.24447
1.90088
6.34256
-3.07798
-3.5267
0.489194
0.433296
22.0335
-0.847721
22.996
18.0428
-1.40907
22.7575
18.2697
18.38
-22.2207
-0.53213
22.0934
22.194
20.7511
16.3265
16.2814
7.10869
18.7888
20.0971
18.0971
7.41106
2.38475
2.26452
18.0222
3.70575
16.1275
-19.8313
-1.72824
-1.27571
3.15732
20.232
20.1631
21.4352
-23.4677
18.5098
15.6176
21.1395
-3.03791
-2.91924
15.9074
19.8146
19.7522
19.8134
19.8677
-21.2348
21.0202
-4.50896
19.6603
15.5027
15.6313
15.1591
20.3182
15.7465
-0.94439
6.6176
6.10995
0.131083
0.210707
-16.2047
19.9042
-16.251
17.2991
17.3389
6.75161
7.43778
6.72353
-3.60631
-3.89479
-16.237
-0.80497
17.3787
8.34463
8.20185
8.14241
15.8242
20.6921
-1.17982
-1.74637
-1.34847
-1.94642
0.376272
-0.291953
2.0166
-0.970561
18.4928
-11.2278
-9.63099
1.69147
1.21801
2.71248
18.7973
18.5717
7.01846
-12.3693
20.1928
17.0011
17.3974
14.7105
14.4862
14.5106
-10.8277
22.0554
20.1747
20.1671
17.7806
17.9102
1.8518
1.75412
2.19754
1.89909
22.1147
22.1893
-1.28822
18.0633
18.1487
19.3947
19.5406
19.166
20.1354
19.8423
19.7816
1.07418
1.23479
1.40969
7.32696
4.49862
3.55138
3.43574
-7.83649
-7.82955
22.185
8.19369
-4.56731
-3.51768
-3.95942
-8.90307
-8.122
3.83517
18.9788
18.5871
18.7932
20.7657
0.165053
18.7677
-9.46931
-9.22473
-9.49936
-9.21029
21.0745
3.08479
2.81665
20.5028
16.1838
-4.03614
0.718735
0.819946
-0.551688
-0.450059
23.0259
16.6694
-3.61088
-2.48536
-3.19214
-3.62705
20.9146
-1.04883
-1.15146
-0.967379
0.814304
0.791755
-3.58636
17.2995
17.144
3.78886
17.1773
-6.83091
-6.56679
-6.8946
0.628499
21.1559
-0.769781
-0.564155
20.989
17.1986
1.87621
1.599
7.12822
8.24284
14.3429
14.2185
20.4548
-7.23731
16.1397
16.3971
16.0246
16.3783
0.823111
-1.10779
-3.79641
-4.01618
-4.42482
23.1926
22.6432
-7.76955
-7.76391
-7.59566
-10.9514
-10.2359
-11.3518
-11.8372
14.1713
-3.92969
-3.7713
21.2976
12.2019
14.5828
14.6187
14.1918
17.836
17.7686
1.49821
-2.36666
22.6796
-3.30393
-3.15864
-3.71866
2.10494
1.43537
22.5821
0.836998
21.1327
21.2965
-2.72253
-2.87678
-2.2159
-5.88558
-5.5088
14.0535
13.3829
16.9747
16.5988
18.0273
18.587
18.1678
18.882
19.7113
19.692
19.3301
16.5805
13.8416
16.4295
19.5393
9.81495
-9.2047
-9.43793
-9.30462
22.8626
16.8125
4.1631
3.95187
4.98815
4.80879
4.85735
18.399
-9.4864
1.92189
19.1602
0.0502713
-3.79275
16.3792
16.4952
16.3783
8.29997
20.0485
21.6136
-5.90333
-2.26467
-0.37289
19.4653
19.3154
3.09033
-10.065
-10.2339
18.5976
-3.6777
-3.30219
15.8487
-0.512591
-0.0425661
5.19921
5.39698
-0.645532
15.4037
-21.5445
16.0466
18.7341
18.6468
18.2288
9.42082
9.16519
16.2877
16.2007
15.5432
21.5837
21.3782
0.173111
-0.491286
0.955947
0.985305
6.74114
6.70371
22.1215
13.2398
13.0811
21.4972
21.3193
8.32208
8.5038
-8.44183
-4.19022
-4.1913
0.000415382
0.215201
0.709339
0.50462
11.3935
0.863316
0.871369
-9.4952
-9.47201
15.0723
15.4399
-7.09263
-6.76127
-0.566041
-11.9378
-11.3947
14.7737
14.7402
14.6184
14.472
-4.92684
-5.21614
5.25035
5.38878
5.48048
2.02455
2.54322
2.72993
19.4756
19.4861
1.8381
1.82789
1.6797
22.2153
21.8217
6.01407
6.91426
19.6363
14.3128
14.323
13.9104
0.70257
-5.95414
-4.98718
16.5556
15.4549
15.3352
-8.36539
0.794549
19.911
-1.424
-1.31316
-1.94596
20.2169
20.2203
7.68033
7.70306
7.97661
8.07618
5.04356
4.95162
-4.33838
-4.21609
-0.358149
-0.329783
0.699527
0.667423
0.693698
5.87177
-2.93064
-0.271915
15.6812
15.8207
14.3204
15.2243
17.7898
15.3248
15.2544
4.21838
4.03915
16.6252
-1.0621
-6.74108
18.3077
1.19028
1.2739
7.98413
1.27352
0.064074
0.872531
1.0167
16.9072
17.0345
-0.722908
-4.90572
-4.47779
15.332
2.6202
2.00193
-1.09467
0.671422
0.728539
16.6037
-6.5549
0.497044
-1.0274
0.12692
0.465911
14.7835
14.6682
17.9789
17.4761
14.9157
15.2862
4.48954
18.6006
14.2489
14.4344
14.3237
-5.55989
20.2451
-1.78327
-1.327
-3.19927
7.64187
8.04002
7.9577
3.95424
-4.44388
-4.97117
3.79149
4.06229
3.99031
1.77718
1.47227
1.44286
0.0732925
-0.114666
14.5355
14.5061
18.6732
18.8203
18.5963
0.997066
0.96439
1.39003
1.44924
-11.5676
-0.560435
4.90821
5.77596
-7.13026
-6.99743
-6.24287
-6.18542
4.59004
4.59691
4.59929
8.14707
7.48706
8.68883
-0.53659
-0.258461
-0.12626
1.92218
2.24385
1.9294
14.6744
15.6547
2.48738
2.35316
2.10352
-7.92698
-7.64368
-8.50366
1.84291
1.73108
-6.05242
-6.08052
-8.46915
-4.23426
-3.90809
15.8233
15.2862
-12.1923
-11.8326
15.7584
15.4678
15.5269
4.15486
-2.52391
0.00463314
15.7289
21.319
7.49778
15.9133
4.67403
4.6059
-7.59634
18.122
2.90647
1.39843
1.28199
3.61724
3.49434
15.8856
15.9827
0.714756
5.40794
5.35016
-8.07737
4.1484
3.88878
3.64363
2.47993
2.14119
5.90235
4.73849
4.77892
4.62262
4.85635
1.25692
1.5756
15.5054
15.7608
6.84681
6.82524
-23.908
6.46932
6.13916
-3.83678
-4.87248
4.84897
4.55546
4.70139
4.86869
4.82093
4.78256
-2.08653
-2.23193
-2.37167
16.5245
16.6851
16.8635
14.6748
14.8099
21.7098
-1.40733
-1.31171
7.65437
-1.48108
-1.86433
6.11114
6.31906
-1.65299
-1.62869
-1.74246
-8.30236
-8.68879
5.97009
5.69451
-0.441962
-0.312004
17.3533
16.4357
-6.14701
-6.19727
-9.22736
-9.91775
-10.0321
-5.89469
-5.66596
-6.73486
20.6364
-2.1749
-2.31251
-2.48883
15.9384
16.0344
16.2886
11.9503
11.6148
-0.687246
19.0736
18.8794
14.3638
14.3365
6.69977
6.46899
6.402
8.24973
8.12902
8.53127
14.402
14.6851
19.7132
19.6167
15.2803
14.9342
14.8877
-2.47001
-2.25537
-8.67417
-10.4485
-10.3306
20.0538
20.1777
20.2643
18.3158
3.81346
4.23451
4.70567
-0.215826
-0.171385
4.42667
18.1945
18.8081
18.6544
19.1259
16.339
15.4518
16.0784
16.6705
5.18264
5.04061
-5.25959
-4.86308
-5.75269
-3.04563
-2.75829
-20.4185
-2.11294
-2.31832
-9.78786
-1.74609
19.3795
19.2489
-3.64462
-3.27369
-3.244
1.34504
1.27542
1.10916
1.13191
0.728551
17.6082
2.25953
2.70366
-0.199927
-0.0929206
-0.216464
-4.47827
-3.78186
-3.82019
18.6153
18.5059
-11.154
-10.7647
9.12469
9.32598
19.2025
19.3545
18.9559
19.3324
8.56703
8.55721
-2.96531
-3.32935
-0.24743
-0.250827
-0.43137
18.149
18.0591
16.8693
0.815585
0.74962
0.779789
-2.76147
-7.4287
-7.51083
-4.17643
1.11299
1.7426
2.29504
1.91535
0.934881
0.847442
0.773651
4.68551
-0.816139
-0.575235
19.6695
5.51402
5.23479
19.59
19.2472
-0.964545
20.4383
1.14208
-7.10686
-19.5138
-1.52392
-2.22453
7.97176
2.62827
-2.10592
3.32182
-6.69141
9.36119
7.18646
4.63069
-8.19679
9.8714
4.81324
-7.70286
2.49468
7.37409
6.63482
-4.48099
6.52506
12.5402
6.60189
-5.14847
-7.0611
11.7476
0.322278
10.0418
7.21612
4.32461
5.51181
-5.36062
7.65945
8.21366
4.75818
1.72078
1.79742
15.8118
8.09722
1.05052
0.497793
0.80603
-14.103
11.4714
11.7591
11.3647
11.1305
10.9604
3.03417
4.38878
3.46072
10.6457
-1.13268
-1.62291
-3.66321
6.44411
-10.8026
4.65447
7.20244
7.97433
3.19217
8.49157
4.77998
5.26436
-10.8603
11.7388
12.993
-28.1609
7.19209
0.982433
2.07069
10.2588
6.05849
-19.5899
20.3752
20.5285
-6.18753
-3.40429
6.17213
2.48572
3.09134
-3.80522
9.88139
5.39717
4.47665
10.9117
8.33925
9.52085
-1.629
-1.96637
8.89314
8.57766
9.10146
-5.82712
11.4038
11.4115
-5.1538
-5.06858
3.54135
3.81009
6.52618
6.83974
-6.97475
-7.79048
9.9887
10.8874
10.9377
9.07296
1.23495
1.96071
-4.8966
-5.36421
1.34403
1.94886
-10.3749
-4.38178
-5.14417
7.07528
6.90008
-10.8838
9.78341
8.93034
9.98688
5.93747
7.63511
5.63049
-10.3471
9.6217
9.10754
9.92743
4.4763
-11.007
9.1097
-2.85869
8.85101
15.3612
1.75436
4.46214
9.51419
8.12567
0.48942
1.05958
-6.62723
0.823189
9.04402
2.79114
2.11739
7.73541
3.5664
1.08204
0.390363
7.16128
7.62342
7.46923
5.87643
14.0156
-0.629249
11.9292
8.76332
9.10938
2.68618
2.19655
13.6613
13.8293
1.4611
-6.70278
1.37897
1.8954
-9.75071
-9.89098
8.32843
8.22518
-4.74556
-5.28752
-6.35181
10.482
10.6754
7.77006
-28.3381
7.99042
9.13153
9.21799
-7.91073
0.676247
9.48407
-10.7051
1.72245
-13.1061
-5.89706
-2.54501
-0.0967427
-0.409087
-9.85382
-1.48658
2.85657
3.91465
2.76506
2.16866
2.9444
8.74422
10.902
10.9283
14.7103
0.121239
-0.353367
-6.78837
8.83545
5.29182
-6.90384
6.608
6.6867
6.93165
9.84299
10.2168
10.5384
5.77468
5.83821
3.14401
3.33589
10.3947
9.61887
3.2892
3.89631
-2.68867
11.6056
11.2545
-8.41466
10.6309
10.4607
10.7306
4.45806
4.4581
4.20102
-10.9665
-0.374108
5.4207
2.97675
3.63831
1.02538
4.4461
4.43217
10.1174
9.8873
3.93065
-9.00906
10.6504
-17.9345
1.80833
2.47764
10.4414
10.302
10.3065
9.87449
-1.92854
5.83316
-5.4898
-5.65519
7.95523
8.75185
2.56477
1.34622
1.82334
2.07573
14.0994
14.7923
7.44967
7.66265
10.5134
10.7908
11.2383
11.2806
4.85735
4.27118
-2.29807
-1.41081
1.3677
1.23766
0.455823
0.429407
20.1546
20.2857
20.3983
8.28982
8.09259
7.94838
5.55563
5.35773
7.62577
7.46081
7.5609
-0.636193
-1.17488
14.7262
13.8437
7.20384
6.93586
8.77524
9.12957
-8.64295
16.0046
16.0497
1.11728
0.202283
7.88961
7.77838
0.413546
0.44423
3.01836
3.50059
7.77587
5.98
5.93998
-5.03885
-5.42004
-11.0063
2.37993
2.04877
3.03629
3.61489
10.1859
-5.59744
-6.66221
-5.82518
-0.939571
1.27564
1.96035
14.2767
15.0884
3.39997
2.91193
9.37578
9.46877
-2.45975
-2.63905
9.54664
9.89362
-0.67892
-0.281361
7.83106
7.86244
8.31277
8.07517
7.6826
7.78299
0.270923
-1.3663
10.8809
10.729
-10.2885
-9.56043
20.5542
7.93086
7.59124
7.83193
-5.13017
-5.81938
8.46563
8.47032
-5.0965
5.49325
5.45823
9.61095
9.20429
9.78675
9.96662
4.56774
-13.2286
-13.9201
2.69146
6.23018
8.43087
11.7965
0.312545
4.36028
3.95217
9.30211
9.87234
9.80214
10.7511
9.98727
9.54085
9.10005
-11.2587
-0.581416
8.25207
8.59412
8.52834
8.82527
4.07919
3.90472
3.67097
3.66081
3.21385
4.32049
3.74779
8.41734
2.73732
2.6006
2.78654
-6.7086
-6.9654
-7.02718
-0.362529
10.1369
5.90887
1.81603
2.00821
1.15252
0.552173
-11.628
14.6583
14.3379
-15.8628
6.81207
12.0494