/*--------------------------------*- C++ -*----------------------------------*\
  =========                 |
  \\      /  F ield         | OpenFOAM: The Open Source CFD Toolbox
   \\    /   O peration     | Website:  https://openfoam.org
    \\  /    A nd           | Version:  6
     \\/     M anipulation  |
\*---------------------------------------------------------------------------*/
FoamFile
{
    version     2.0;
    format      ascii;
    class       surfaceScalarField;
    location    "200";
    object      phi;
}
// * * * * * * * * * * * * * * * * * * * * * * * * * * * * * * * * * * * * * //

dimensions      [0 3 -1 0 0 0 0];

internalField   nonuniform List<scalar> 
44596
(
1.53742
-2.16456
0.627141
1.53742
1.44625
-1.44625
1.93706
-0.490815
-0.0941984
-2.14833
2.10043
-0.563011
1.31282
-1.31282
0.215827
1.81688
-2.21217
0.765922
-0.267194
2.30053
-0.799913
-1.20632
0.799913
1.30052
-0.561905
-1.34652
0.561905
0.750911
-0.595611
-0.825716
0.825717
-1.17063
1.38645
1.19402
0.638245
-1.83227
0.0424335
1.50314
-1.54557
1.42722
-1.42723
-0.147824
-1.67722
1.82504
1.54643
-0.0849766
-1.46145
1.12608
-1.12608
-1.10582
1.10582
1.12153
-1.12152
0.233955
1.24211
-1.47606
1.36571
-1.3657
1.46885
0.0775866
-1.31849
1.31849
0.26606
1.35446
-1.62052
-1.58625
1.58625
0.603266
0.58206
-1.18532
1.9441
-0.516883
-1.25886
-0.216588
1.47545
-1.43336
1.43336
0.706697
1.29311
-0.793151
1.49985
1.4721
-1.76691
0.294808
-1.62305
1.62305
1.05001
-0.816052
1.24958
-1.42186
0.172284
0.9625
-0.962499
1.20206
-1.34988
-2.31238
0.831479
-0.831481
1.00995
-1.09493
1.84143
-1.92641
-1.58619
-0.61309
-0.788762
-0.797417
-0.897385
0.897386
-1.03968
1.08211
1.9795
0.0632765
1.48764
-1.55092
-1.53537
0.135406
1.39997
-1.55092
-0.460169
0.00928822
-1.44265
0.114864
0.212673
0.259522
-1.81044
-1.50738
1.81044
0.528616
-1.2087
1.99746
-1.44266
-0.946893
-0.474968
-1.55011
1.55011
0.892397
-0.385431
-0.506972
-0.814152
0.414187
0.399965
0.702761
-0.115183
-0.58758
-0.00326296
-0.0964637
0.0997253
-0.0602347
-0.0685772
0.128811
0.0621613
1.44098
0.853505
-0.791344
-0.00588498
-1.45557
-1.20473
1.19884
-0.0431791
-0.0044216
0.0476002
0.123145
1.07087
-0.794185
0.554159
0.240026
-1.66438
-0.0128407
-0.351297
0.931968
-0.580674
0.415987
0.598571
-1.01456
0.0469059
-0.88375
0.836843
0.00667097
0.0735051
-0.080178
-0.0409942
0.0109977
0.0299964
0.0975157
-1.02702
0.929513
0.80578
0.635196
0.710721
-0.60796
-0.102761
1.24624
-0.143469
-1.10277
-0.162922
-1.09865
1.26157
1.53762
-1.70054
-0.0262973
-0.0146974
0.00681066
-0.0499902
-0.936986
-0.727392
-0.0385033
-0.898484
-1.07869
-0.00397415
0.0343425
-0.03037
-1.30469
-0.150875
-0.437224
-0.867469
0.00954314
-0.803728
-0.80461
-0.680584
-0.613774
-0.324402
0.938173
-1.20239
0.985799
-0.00117192
0.00117341
-1.10224
1.25529
-0.15305
0.253716
0.904131
-1.15785
0.812663
0.0701884
-0.882845
0.0177465
0.914221
0.910145
0.901381
-0.484826
0.900814
-0.883043
-0.321691
-1.13179
-0.308859
1.44064
-1.20015
0.261564
0.938581
0.539589
-0.861012
0.321421
1.05629
0.943612
-0.750262
0.757737
-0.00747629
-0.886146
1.05843
0.849189
-0.210945
0.253051
-1.18902
0.935971
-0.977539
-1.02357
-0.280734
0.983494
-0.898326
-1.41405
0.936829
0.308239
-1.24507
-0.00984501
-1.41738
1.14163
-0.205664
1.22119
0.758308
1.07611
0.923824
-0.632487
-1.29393
1.06971
0.172399
-1.10628
-0.875269
-1.8512
0.74492
-1.63685
-0.195414
1.16336
-0.739106
-0.424257
-0.100313
0.79993
-0.699615
-0.949693
0.0822231
0.882151
0.116691
-1.06359
-1.32597
0.420108
-0.915531
0.495421
0.824961
-0.612289
-1.52782
-0.809581
0.334612
0.353782
0.716351
-0.778847
0.0624967
0.811469
-0.696605
0.0501701
-0.0434992
0.043243
-0.047218
-0.534935
1.03036
-1.23542
0.700483
0.0008945
-0.000893885
0.869664
-0.88429
0.0146265
0.130557
-0.000743667
0.000744724
-0.000743134
-1.09778
1.09779
0.864631
0.80795
-0.677395
0.752192
-1.24713
0.494942
-0.71942
0.570626
0.148794
-0.00869945
0.395167
0.458338
-0.565655
-0.238955
-1.54362
1.48538
0.0582369
0.210673
-1.09682
1.53762
0.946429
1.38543
-1.46871
0.0832723
-0.00134687
0.00134938
-0.000602192
-1.00366
0.888478
-0.854433
1.15153
-0.297092
0.818024
1.42129
1.29738
-0.71532
-0.637983
-0.376574
0.659398
2.34154
-0.975828
-0.143963
-0.923761
0.233518
-0.65305
0.419529
0.0595686
0.805061
0.286118
-0.873698
1.04581
-0.0600086
-1.18851
0.946819
-0.246338
-0.131871
0.791424
-0.114288
1.24017
-1.35922
1.35867
0.000549652
-1.04202
-0.50355
-1.53284
-0.766914
0.381772
0.049917
0.626509
-0.676425
1.20957
-0.153282
-0.149652
1.70684
-0.485759
-1.22108
-0.14437
0.762209
-0.40843
-0.633034
-0.22798
-1.40341
1.33928
1.96642
0.0019788
-0.000997005
-0.000982399
0.00250597
-0.00900168
0.00649579
-0.025821
0.0275107
-0.00168965
0.0409986
-0.0218783
-0.0191204
-0.00382874
-0.00685063
0.0106798
-0.0107453
0.00691678
-0.044939
-0.000289157
0.0452289
-0.0191752
-0.103069
0.122244
-0.00512103
-0.00564238
0.0107634
-0.0698874
0.0532
0.016687
-0.111495
0.0724059
0.0390897
0.0886037
-0.0168807
-0.0717237
0.00633505
-0.00602897
-0.00030608
-0.501701
0.325108
0.176599
0.0233118
0.00134489
-0.0246573
0.00686088
-0.00548417
-0.00137668
0.00084335
-0.000843004
0.004148
-0.00926903
0.00858004
-0.00662274
-0.00195732
0.01435
-0.0242502
0.00990027
-0.00848817
0.00618112
0.00230697
0.00297899
0.00388189
-0.0333026
0.00629141
0.027011
0.032685
-0.0291622
-0.00352302
0.0117228
0.00495072
-0.0166735
0.0282804
-0.0165577
-0.0536538
0.00943288
0.044221
-0.0387704
0.0552029
-0.0164324
-0.00111097
0.00111177
-0.00594219
-0.00925005
0.0151927
-0.012793
-0.0886649
0.0943608
-0.00568517
-0.00691216
-0.0597932
0.0667028
-0.0368891
0.00763562
0.0292535
0.00211629
0.01481
-0.0169263
-0.00281712
-0.00864389
0.0114611
-0.000431176
0.000432033
0.0146187
-0.0370737
0.0224551
0.00484713
0.00668742
-0.0115346
0.0103876
-0.00162414
-0.00876351
-0.0106964
0.0853025
-0.0746059
0.064947
-0.0756432
0.0515689
0.0215798
-0.0731486
0.0663393
-0.0147704
0.00669907
-0.00386328
-0.0028358
-0.00375729
0.0459259
-0.0421684
0.0611897
0.01144
0.0118717
0.0224378
0.00463674
-0.0217063
0.0170696
-0.017958
0.0192463
-0.00128828
-0.00530804
-0.01265
0.0533019
-0.0430582
-0.0102436
-0.0444807
0.00333142
0.0411492
-0.00799324
0.00363896
0.00435429
0.0104827
-0.0081772
-0.00230545
-0.00728597
0.0190867
-0.0118006
-0.0721419
0.0652316
0.0164626
-0.0234305
0.00378906
-0.00518562
0.00139658
-0.0158937
-0.03776
0.00010592
-0.00396905
0.00386313
-0.0198077
0.0144996
0.012568
0.00161577
-0.0141838
0.0056041
-0.0148542
-0.631113
0.306711
-0.0115878
0.00430174
0.000374863
1.0459e-05
-0.000385832
0.0174013
-0.0145101
-0.00289119
0.00996708
0.00743417
-0.00487281
-0.00671495
0.00416277
-0.00903556
0.00242975
-0.00914467
0.00668668
-0.00889229
0.00220573
-0.00241441
-0.00439771
0.00681218
0.00051756
0.00963322
-0.0101508
0.0463831
-0.0369502
0.00761269
-0.0343169
0.0232014
0.0111154
-0.0100532
0.0162029
-0.00614966
-0.00223887
0.0174318
0.0143469
-0.0104643
-0.0038826
0.0425264
-0.0349137
0.0452931
-0.00276668
-0.0447945
0.00988083
0.0594858
-0.675053
0.615568
0.00586081
0.00462195
-0.00366887
-0.00432434
0.06584
-0.34417
0.278329
0.170225
-0.503559
0.333334
-0.00298817
-0.00410397
0.00709239
-0.00473915
0.00493848
-0.000199142
0.0191708
-0.00920374
-0.00276242
0.01676
-0.0139976
-0.0274414
0.0121226
0.0153187
-0.0192026
0.0281971
-0.00899461
-0.046644
0.0403197
-0.00632723
-0.00646646
-0.00937308
0.0118028
-0.00742891
0.00993488
-0.00691796
0.00826284
0.0181976
-0.0355828
0.0491465
-0.0135637
-0.0544383
0.0188555
-0.00562018
0.0178446
-0.0122244
0.00387981
-0.0171438
0.013264
-0.0614617
-0.0500338
0.264027
-0.579469
0.315442
-0.00579049
0.0543935
-0.0486028
0.0475118
0.0375136
-0.373531
-0.128169
-0.0130177
-0.01164
0.0105283
0.0128678
-0.0233966
-0.147362
0.209658
-0.0622962
0.00172147
-0.00172114
0.0612612
-0.025504
-0.0357582
-0.00638152
0.00819625
-0.00181457
-0.0471661
-0.014671
0.0618371
0.0107061
0.00749148
0.0145627
-0.0086055
-0.00595707
0.00808243
0.0111639
0.0119622
0.000583566
0.0105803
0.190312
0.117034
-0.307347
0.0229893
0.00579755
-0.0287869
0.00330805
-0.0163258
0.465937
0.123513
-0.589451
-0.751838
-0.131912
-0.00304999
-0.0257373
0.0406662
-0.00632422
0.0376156
0.0318994
-0.0226391
-0.00926005
0.0114373
-0.0418082
-0.00906066
0.0027332
-0.0111159
0.00205492
-0.393338
0.487454
-0.0941168
-0.510669
0.503193
0.0236785
0.0315244
0.0389972
0.0825829
0.0266307
-0.109216
-0.0496159
0.0406212
-0.000469404
0.0402408
0.000380302
0.00224102
0.0328699
-0.0351109
-0.0422397
-0.00767203
0.00588194
0.00179005
-0.0584058
0.0112391
0.000593922
0.0320906
0.00958202
0.00301827
-0.0126003
-0.00396184
-0.0105482
-0.00752996
-0.638179
0.497074
0.141104
-0.0229644
0.0213174
0.00164687
0.005316
-0.0129995
0.246319
0.238144
-0.484464
0.344442
-0.0981247
0.559566
-0.0102304
-0.000233983
0.000993779
0.011874
-0.0092366
0.0324859
-0.035749
0.0374015
-0.030591
-0.0663397
0.328542
-0.153456
-0.175086
0.0029457
0.00429397
-0.00723967
-0.00397455
0.00705002
-0.00307545
-0.00532741
-0.0159439
0.021272
0.0112353
-0.0165622
-0.0146955
0.00545896
-0.000139936
-0.0145558
0.014134
-0.00867502
0.0285774
0.0271582
-0.0557372
0.0358698
-0.00512375
-0.0307456
-0.0135266
-0.0528131
0.0406
0.00264296
0.0270729
0.009038
-0.00123476
-0.00780324
0.00289382
0.00614418
-0.0135544
-0.0149636
0.0285182
0.0119075
0.00962412
-0.0215315
-0.00533934
0.001063
-0.00580199
-0.00734988
-0.0259524
0.0245087
-0.0101586
0.00268672
-0.00776469
0.00507794
-0.00650135
0.00736621
-0.000864651
-0.0292222
0.0145243
-0.00839348
0.0354659
0.0176886
-0.0195708
0.00188293
0.0232932
-0.0210187
0.92515
0.211651
0.596297
-0.445169
-0.187867
-0.0121504
-0.00742011
0.00572782
-0.017878
0.0111124
-0.0185325
-0.0530288
0.0119851
0.0410432
-0.000171235
-0.0596674
0.059838
0.00807176
0.0112714
-0.0193432
-0.0130225
-0.008509
0.0309037
0.00196575
-0.00399536
-0.0251671
0.0269079
0.00782805
-0.00138581
-0.00644224
0.00588235
0.00194571
-0.00715809
0.0057723
0.0168536
-0.0147374
-0.531092
0.593589
-0.514714
0.594924
-0.0802116
-0.00258836
-0.00678704
0.00937552
0.0288962
-0.0891311
0.0315553
-0.0169366
0.00573425
0.0283565
0.014669
0.00862462
0.0188287
-0.00415906
-0.0174415
0.0260669
0.0824753
-0.0731273
-0.00934447
0.00566121
-0.0211996
0.0155381
0.0221369
-0.0106998
0.0277978
0.324307
-0.339279
0.0149726
0.00308948
0.0114729
-0.00985224
-0.00126401
-0.0067627
0.0102087
0.494891
0.945154
-1.44004
0.00144045
-0.00144019
-0.563885
-0.0659548
0.62984
-0.818041
1.31293
0.0009886
-9.30807e-05
0.466954
-0.40747
-1.0613
1.0613
0.131016
0.945096
-0.885831
0.653172
0.232659
-0.408652
-0.477179
1.23344
-0.262737
-0.970702
0.168166
-0.0932607
-0.0749102
-0.52856
-0.109619
-0.101108
-0.427451
-0.842385
0.939902
0.183352
0.317702
-0.501057
0.373664
0.0413493
0.653685
-0.695036
0.48545
-0.444103
0.123552
-0.0409637
0.601905
-0.622923
0.5384
0.0635053
0.141554
-0.112658
0.484331
-0.237631
-0.246699
0.19492
0.289412
1.74969e-05
0.000525906
-0.000544647
-1.01661
-0.145865
0.573811
-0.427944
0.00064829
-0.000649012
0.400917
-0.944092
0.543175
-0.553201
0.603119
-0.306856
0.592973
0.082586
0.0589677
-0.607145
-0.21439
0.821537
-0.0965285
-0.0378962
0.134428
0.0270267
-0.156022
0.00734825
0.148673
0.644473
-0.696153
0.089012
-0.328857
-0.367295
-0.688144
0.359289
-0.914005
0.0488959
-1.00004
0.753701
-0.163195
-0.438306
-0.236746
-0.646664
0.418682
-0.12792
0.359534
-0.886816
0.501385
-0.608341
-0.278475
-0.000814287
0.000813655
-0.000555605
-8.33907e-05
0.000638828
1.03392
-0.151768
-0.00940846
-0.669751
0.67916
0.942287
-0.621282
-0.321003
0.333945
0.21786
-0.702687
0.655957
-0.0900487
-0.565907
0.881495
0.738026
-0.312857
0.713773
0.0328411
0.0703536
0.0105597
-0.187021
0.23143
-0.0444089
0.21835
0.426123
-1.14888
1.14889
-0.48315
-0.204993
-0.753626
-0.273389
0.835807
-0.334421
0.082182
0.271627
0.195327
-0.000961522
6.50195e-05
0.000896469
0.787538
-0.52351
0.304389
-0.0229591
-0.0915365
-0.0108662
0.00410357
0.809154
-0.955017
-0.452784
2.0029
1.0326
-0.540969
0.357513
0.183454
-0.269342
-0.326924
-0.3312
0.658125
0.0400577
0.247722
-1.49485
0.856677
-0.608955
-0.087696
-0.257063
0.344759
-0.274718
1.20095
-0.0581769
0.0422833
-0.0365972
-0.632165
-0.210219
1.07463
0.247744
-0.580979
0.333233
-0.832051
-0.584308
-0.796194
0.255116
-1.05131
-0.0132306
-0.012155
0.0541843
0.0622906
-0.946581
0.715975
0.000478274
-0.00129282
1.22119
-0.681115
1.90231
0.223261
1.03926
-0.816003
0.938156
-0.924975
-0.0916375
-0.293855
-0.287127
0.644317
-0.0211958
0.00375468
-0.0193128
-0.0313027
0.0119901
0.109147
-0.647547
0.725132
-0.0775844
0.297681
-0.604503
0.979808
-0.375304
-0.0306916
0.778464
1.04304
-1.18741
0.00844111
-0.635466
0.265348
-0.14152
-0.00288474
0.0289524
0.0416832
0.189747
-0.0709754
1.2762
0.211649
0.85194
0.0426004
-0.0392692
-0.00045846
0.0131314
-0.104669
-0.0759999
-0.146976
-0.02006
-0.0635601
0.418594
-0.496178
0.511811
-0.0932182
0.348585
0.163226
0.417387
-1.34204
0.157805
0.0385783
-0.49123
-0.161823
-0.452653
0.576198
0.0393698
-0.453112
0.29129
-0.102618
-0.350496
-0.359682
1.13983
0.132446
0.822259
-0.689812
0.559522
0.00112825
0.000315405
-0.000538523
-0.784476
-0.459368
-0.591279
0.0255749
1.3935
0.712389
-0.756319
-0.0068779
0.00809435
-0.00121648
0.00233539
-0.0092133
-0.000310645
0.00560659
-0.00529595
-0.00267919
-0.00604712
0.00872635
-0.148272
0.264616
-0.116345
0.00467878
-0.00531897
0.000640285
0.00712312
-0.00282368
-0.00429944
-0.00777569
0.00634868
0.00142701
-0.00452545
0.00453217
-6.70892e-06
-0.0120218
0.0115661
0.000455765
0.0114303
-0.00195407
-0.00947622
0.00316724
0.00826306
-0.0131198
0.00162455
0.0114953
0.00650668
-0.00213102
-0.00437567
0.00296142
0.00354526
-0.0125337
0.00314313
0.00939055
0.00684953
-0.0193832
-0.00504439
-0.0029903
0.00803469
-0.00844274
-0.000779918
0.00922266
0.0021403
0.00799785
-0.0101381
0.00457608
0.00104484
-0.0056209
0.00445024
-0.00946844
0.00501827
0.00884273
-0.00990065
0.00105791
0.0018432
0.00699954
-0.00680765
0.00343563
0.00337202
-0.00303888
-0.00376876
0.00315314
-0.00699785
0.0038447
-0.000997004
0.00867951
-0.00768251
-0.00180846
0.00249408
-0.000685552
-0.00390811
0.00109983
0.00280817
-0.00136706
-0.00187724
0.00324436
0.00242404
-0.00379105
-0.00357468
0.00886545
-0.00529082
-0.0069824
0.00144085
0.00554155
-0.00216966
-0.00481274
0.00544019
-0.00804475
0.0026046
0.00073695
0.00353246
-0.00426939
0.0065459
-0.00755155
0.00100565
0.00409412
-0.00262115
-0.00147305
0.00380742
0.0023553
-0.00616272
0.00201496
-0.0036423
0.00162734
-0.00670646
0.00166207
0.00624848
0.00284863
-0.00909696
0.00572323
0.000525414
0.00221151
0.00658951
-0.00880102
0.00836901
-0.00901115
0.000642141
0.00712455
0.00120604
-0.00833059
-0.00644462
-0.000537848
0.00698256
-0.00675398
0.000241583
0.00651245
-0.00312204
0.00627519
0.00723537
-0.0110794
0.00384402
-0.0108675
-0.00115433
-0.00563019
-0.00523733
-0.0256513
0.0211367
0.00451445
-0.0016734
-0.341051
0.342724
-0.00823229
0.00483346
0.00339883
-0.00613277
0.00640147
-0.000268698
0.191688
-0.19336
-0.00376773
-0.00419483
0.00796259
-0.00980344
0.0017168
0.00808665
-0.0024559
-0.00734753
0.0198562
-0.01009
-0.00976621
-0.00180877
0.021665
0.00748909
-0.00143623
-0.00605285
0.00359148
0.0038976
-0.0062057
0.0105144
-0.00430868
0.00507619
-0.00797709
0.0029009
0.008227
-0.00526557
-0.000666383
0.010099
-0.00943261
0.0055701
-0.00587439
0.000304293
0.00508509
-0.00804737
0.00296233
0.00886265
-0.00886266
0.00211838
0.0129933
-0.0151116
-0.0105416
0.0056907
0.00485089
-0.00845677
0.00220935
0.00624742
0.00848371
-0.00848369
0.00729877
-0.0072988
0.00105121
0.00794241
-0.00899362
0.0547589
-0.0280418
-0.0267163
-0.00396978
-0.00540324
0.00937302
0.00425614
-0.00331058
-0.000944889
-0.0203235
0.00560969
0.0147139
0.00995788
-0.0302814
0.0039924
0.00355172
-0.00754412
0.00525181
0.00108328
-0.00189562
-0.00526245
-0.00199019
0.0145582
-0.00433045
-0.00553463
0.00986508
0.00569277
-0.0011428
-0.00454989
-0.00783183
-0.00078883
0.00862064
-0.013469
0.00386482
0.00960377
-0.0111993
0.00709112
0.0041082
-0.00351131
0.00708294
-0.00357163
0.00179359
-0.0053049
0.00842813
-0.0060365
-0.00239163
0.00596174
0.00180041
-0.00776216
-0.00781022
-0.00143781
0.00924803
-0.00425351
-0.00355672
-0.00202595
-0.00682831
0.00885426
0.00289356
-0.00655208
0.00365852
-0.00398766
0.00709806
-0.00311059
0.00173624
0.00403225
-0.0057685
-0.00303159
-0.00279191
0.00582353
0.00843958
-0.00506115
-0.00337844
-0.00669441
-0.000653303
0.00734802
0.00997951
-0.0055665
-0.00441301
0.00387952
0.00557014
-0.00944953
-0.00862917
0.00778702
0.000842207
-0.00789012
0.00778741
0.000102734
-0.00689403
0.011468
-0.004574
0.00622052
0.00126115
-0.00748167
0.00707725
0.000986806
-0.00806406
0.00921506
-0.00334965
-0.00586541
0.00291527
-0.00702362
0.00410836
0.0029404
-0.00773208
0.00479169
0.0059194
-0.00298246
0.00650966
-0.0035272
-0.00787318
0.00154097
0.00633221
-0.0181997
0.0183463
-0.000146443
0.00313051
-0.00597606
0.00284556
0.00308847
0.00477703
-0.0078655
-0.00573975
-0.00200182
0.00774157
0.00145447
-0.00719423
0.00801538
-0.00199339
-0.006022
0.00928913
-0.00127377
0.0263103
0.0284467
0.00473626
0.00392157
-0.00865782
0.0104758
-0.0100183
-0.000457468
0.00912988
-0.00913191
0.00565385
0.00345468
-0.00910852
-0.00563192
-0.0019565
0.0075884
0.0124043
0.0258356
-0.03824
-0.00351588
0.00838746
-0.00487158
0.0019997
0.00593589
-0.00793559
0.013842
-0.0115912
-0.00225077
-0.00507242
0.00175427
0.00331814
0.00811806
0.00124951
-0.00936752
-0.0036187
0.00603044
-0.00241173
0.00665882
0.00481897
-0.0114778
0.000335026
0.00621065
-0.00654567
-0.00237386
-0.00665364
0.00902751
-0.000721277
0.00709649
-0.00637521
-0.0270492
0.0439744
-0.0169251
0.0335192
-0.0605684
-0.00830422
0.00205905
0.00624516
-0.00390245
-0.00440176
-0.00957833
-0.00202915
0.0116075
0.00924852
-0.00382608
-0.00542232
-0.0107361
0.00505198
0.00568411
-0.00611794
0.00843444
-0.0023164
0.000859675
-0.0064257
0.00556603
-0.00171732
-0.00414697
0.0058643
-0.00865754
0.00229736
0.00636018
0.000228759
0.00243269
-0.00266146
-0.0035648
-0.0009606
-0.0014685
-0.00541642
0.00688492
0.00915488
-0.00871925
-0.000435641
0.00934131
-0.0113673
0.011221
-0.00832718
0.00159911
0.00401835
-0.00561744
0.00801052
-0.00641137
-0.00990693
0.0139626
-0.00405606
-0.00925876
-0.000648551
0.00167798
0.00624373
-0.0079217
-0.00861321
0.00838116
0.000232057
-0.00544119
-0.00317202
0.00796209
-0.00700464
-0.000957447
0.00682944
-0.00986832
0.00161242
-0.00741331
0.00580089
-0.0038244
0.00603589
0.00444008
-0.00826445
-0.00654672
-0.00554707
0.0120938
-0.00745608
-0.00367038
0.0111265
-0.0125135
0.00568515
-0.00558345
0.00255185
-0.000189184
0.00505702
-0.00486783
0.00538408
-0.00476308
-0.000620987
0.00166899
0.00371509
-0.00210127
0.00804264
-0.00594138
0.00479077
-0.00696042
0.0320889
-0.0116507
-0.0204381
0.0387927
-0.00670367
-0.0305069
-0.00656679
0.0100021
-0.00919833
-0.000803777
0.00762825
0.0080196
-0.00788268
-0.00013704
0.000243917
-0.0104845
0.00260173
0.00411585
-0.014169
0.00695991
0.00254256
-0.00950247
-0.00875887
0.00967395
-0.000915088
-0.0075254
-0.000277684
0.00780308
0.00339349
0.00718431
-0.0105778
0.0077578
-0.0082245
0.000466595
0.00619902
0.00072625
-0.00692537
-0.0244949
-0.0157764
0.0402714
0.00634537
-0.00986124
-0.00445659
0.0106578
-0.00620133
-0.00688191
0.000716863
0.00616505
6.21239e-05
-0.00919172
0.00912959
0.00985875
0.000632505
-0.0104912
0.0026804
0.00439375
-0.00707415
0.00775682
-0.0105481
0.00279126
0.00449116
0.00124243
-0.00573358
0.128894
-0.0478771
-0.0810172
0.000602693
0.00861237
0.00767995
0.00598
0.00470964
-0.0106896
-0.00281457
0.00824752
-0.00543294
0.00202907
0.00529648
-0.00732555
-0.00954466
0.00515818
0.00438649
-0.0018533
-0.00677585
-0.0090744
0.0179037
-0.00882886
-0.00253264
-0.00530621
0.00783883
-0.00051546
0.00698161
-0.00646612
0.00546941
0.00671464
-0.0121841
0.00800017
-0.00813365
0.000133439
0.0108703
-0.00770308
0.00966149
-0.00727605
-0.00238545
0.00234859
-0.00933038
0.00698178
-0.00480686
0.00715546
-0.000121234
0.00630318
-0.00618194
0.0100765
-0.0046071
0.00438966
0.00463756
-0.00902723
0.00489035
0.0031098
-0.0041837
0.00907408
0.00982442
-0.00590594
0.00949742
0.00850948
-0.00306926
-0.00167988
0.0083387
-0.00942029
0.00584554
-0.019147
0.00311173
0.0160352
-0.0107944
-0.00835248
-0.00687715
0.00482739
0.0020497
-0.00620841
-0.000668739
-0.000832746
0.00532569
-0.00449294
0.005128
-0.00832758
0.0031995
0.0358992
0.0372302
-0.0731301
-0.0450094
-0.0267142
-0.00911048
0.00361678
0.00200144
-0.00561822
0.00590355
-0.00122469
-0.00530407
0.012632
-0.00732795
0.0019914
-0.00665627
0.00466495
-0.0103955
0.00662785
0.00376765
-0.00692671
0.00433841
0.00258836
-0.00739451
0.00813683
-0.000742364
0.00287956
0.0142332
-0.0171127
0.00972909
0.00753856
0.00669459
-0.00613094
0.0111449
-0.00501399
-0.00810491
-0.00293992
0.0110448
-0.00409815
-0.00428943
0.00838758
-0.001686
-0.00688975
0.00857575
0.00157134
-0.00884963
0.00727828
0.00660986
-0.0099595
0.0121111
-0.00123818
-0.0108729
0.00918481
0.00242889
-0.0116137
0.00769724
-0.0179362
0.010239
0.00127658
-0.00917433
0.00789775
-0.00530069
0.0114515
-0.0061508
0.00671591
0.000257778
-0.00697367
-0.00133039
-0.0080209
0.0093513
0.00636225
-0.00599494
-0.000367286
-0.000391719
0.00104832
0.00107353
-0.00212169
0.0100516
-0.000866804
0.00665878
0.00339284
0.0112443
0.00394706
-0.00830788
0.00436094
-0.00819267
0.00723335
0.000959443
-0.00483405
-0.00335857
-0.000178652
-0.00934637
0.00952503
0.00733045
-0.00490155
-0.00127392
-0.0101412
0.0114151
-0.00991452
0.00864061
-0.00613669
0.0100328
-0.00389607
-0.00668452
-0.00209472
0.00877923
-0.0148219
0.00996441
0.00485762
0.0146315
-0.0154435
0.000811586
-0.0396025
-0.00533595
0.0742348
0.0546593
0.0115548
-0.00292987
-0.00862493
0.0164199
-0.0117831
0.00869936
0.00756073
-0.0162599
0.0103959
-0.00871788
0.00167933
0.00871653
-0.00743269
0.00911201
-0.00119562
-0.00898102
0.0101766
-0.00337469
-0.00119247
0.00456718
-0.0378237
0.0217146
0.0161091
0.0328261
-0.0305875
-0.00223854
-0.0025325
-0.000258955
0.00279144
-0.0361351
0.0246277
0.0115073
0.00470989
-0.0134153
0.00870541
0.000727658
-0.00946596
0.00873836
0.00096252
-0.00968963
0.00872712
-0.0116089
0.00346687
0.00814205
-0.00540064
0.00836912
-0.00296849
-0.00465536
0.0085349
0.00532416
-0.000878029
0.00681158
-0.0059335
0.00120172
0.00425885
-0.00546063
-0.00727165
-0.00108869
0.00836034
0.000376442
-0.00511572
0.00473955
-0.000841091
0.00690116
-0.00605997
0.00420318
0.0039695
-0.00817264
-0.00312679
-0.00609312
0.00921991
0.00643247
-0.0101954
0.00376291
0.00626366
-0.00595897
-0.000304735
-0.00265963
-0.00551758
0.00360405
-0.00734687
0.00335912
-0.00818727
0.00800861
-0.00859132
0.00126914
0.00732218
-0.00862614
0.00945329
-0.000827144
-0.0070548
-0.00356114
-0.00895232
-0.0110172
-0.00310521
-0.00703598
-0.00999925
-0.000742565
-0.00629342
0.00428998
-0.00835175
0.00406185
0.00941802
-0.00146924
-0.00384961
0.00870733
-0.00938043
0.000673106
0.00164025
0.00706709
-0.00930823
0.0049052
0.00440304
-0.00644582
-0.00320116
0.00964698
-0.0138891
0.0100385
0.00385061
-0.00719945
-0.00668966
-0.00286528
0.00584267
-0.00297738
0.00420844
0.00289404
-0.00710273
0.000814071
-0.00742826
0.00661418
0.0123052
0.00678169
0.017015
0.148183
-0.2423
-0.192868
-0.000799003
-0.00639017
0.00718916
-0.00503611
0.0042371
-0.00543476
0.0113914
-0.00595663
-0.000981765
0.00435389
-0.00337222
0.0179074
-0.0129504
-0.00495696
3.68606e-05
-0.00552101
-0.0165404
-0.0259719
0.0425124
0.0219904
-0.0385309
0.012445
-0.0158398
0.00339485
0.00459915
0.00584031
-0.0104395
0.0201685
-0.0112149
-0.00895368
-0.00869042
0.016773
-0.00808263
-0.013313
0.0253231
-0.0120101
0.0141977
0.0322338
-0.00691063
0.00338098
0.00429161
-0.0076726
0.0174268
0.0235717
0.039884
-0.0227553
-0.0171287
0.00943074
-0.0113454
0.0019147
-0.00888676
0.00933917
-0.000452415
-0.0112183
-0.00219691
-0.00691657
-0.00923302
0.007036
0.0149923
-0.0112109
-0.00378144
-0.0315237
-0.0266505
0.0581723
-0.0580485
0.0255646
0.0324831
0.0134995
0.00042179
-0.0139213
-0.00739834
0.00485693
0.00254143
0.00213255
-0.0050551
0.00292256
0.00388396
0.00112301
-0.00500696
0.0060165
0.00570686
-0.000863488
-0.00484342
0.00529178
-0.00355552
-0.00163493
0.0045282
-0.00860397
0.00407579
0.00816717
-0.0100138
0.00929855
0.000715253
-0.00570898
-0.00430482
-0.00256816
-0.0047041
0.00727223
-0.000315946
0.00829526
-0.00797931
0.0083963
-0.00871225
-0.0019811
0.0113224
0.00923991
-0.000809315
0.00609291
-0.00528352
-0.00524829
0.00443906
0.00927493
0.00685023
-0.0161251
-0.00746616
-0.0107336
-0.00388334
-0.00261708
-0.00711203
0.00972911
0.00503801
-0.00765509
-0.000517288
-0.00659474
0.00214175
-0.010099
0.00795717
0.00335405
0.00618432
-0.00953837
0.0104794
-0.00404692
-0.00603314
0.00353932
0.00249388
0.00894427
-0.00333942
-0.00560485
-0.0066636
0.00666279
-0.0201965
-0.0121524
0.032349
-0.00717585
0.00554006
0.00163581
-0.00421989
-0.000816207
0.0252124
0.00492269
-0.0301351
0.014419
0.0107935
-0.0205071
0.0254298
0.00588891
-0.00471948
-0.00116943
-0.00239151
-0.004361
0.00675251
0.0034974
-0.01078
-0.00268933
0.00860028
0.00639195
-0.00217976
0.01078
-0.00660103
0.012993
0.0097609
-0.000903811
-0.00885715
0.00592238
0.00383853
-0.013496
0.0125921
-0.00423343
0.00622486
0.00508167
0.00569057
-0.0107722
-0.00611763
-0.00309343
0.0100533
-0.0022454
0.00306607
-0.000820558
0.00176907
-0.00651335
0.00474428
0.00958818
3.98392e-05
-0.00962798
0.00473025
-0.0117798
0.00704955
-0.00574741
-0.00196592
0.00771353
-0.00565663
0.00486759
0.000789041
-0.0481963
0.0662362
-0.0180399
0.00502196
-0.00899174
0.00916562
-0.00244393
-0.00672168
0.00106071
0.0616365
-0.0424458
-0.0191927
0.00144525
0.00386315
-0.00530832
0.00595692
-0.0045116
0.00551534
-0.0016522
0.00944978
-0.0202441
-0.0451449
0.027379
0.0177659
0.0384811
-0.0142723
-0.0242089
-0.0181148
0.0217938
-0.00367891
0.0171979
0.00104867
-0.0182465
0.00754609
0.00402002
0.00850865
-0.00605647
0.0100765
-0.0286602
0.0123128
0.0163481
0.00928498
-0.00970551
0.000420542
0.00410096
0.00518402
-0.00649393
-0.00338419
0.00987813
0.00492119
0.00446207
-0.00864574
-0.00165257
-0.005849
0.00750156
-0.00906566
0.00499082
0.00407484
-0.0107182
0.00319789
-0.0108257
0.00762784
-0.0093826
0.00754759
0.00183502
-0.00618471
0.00242694
-0.00307024
0.000643314
0.00250181
-0.00903342
0.00653162
-0.00234243
0.00234329
-0.00165695
0.00835162
-0.00669467
0.00296849
0.00583858
-0.00880707
0.0206066
0.0192773
0.00228047
0.00768761
-0.00996808
-0.00270333
0.00270405
0.00363542
0.0049446
-0.0036279
0.00726334
-0.00826408
0.0104058
0.00261976
-0.0065519
0.00393231
0.00683094
-0.00286612
-0.00396479
0.00945065
0.00422535
0.00252422
-0.00674956
-0.00392895
0.00667432
-0.00274537
-0.00757255
0.00660699
0.000965562
0.00779107
-0.001032
-0.00675913
-0.00567382
-0.00226064
0.00793448
-0.00767563
0.000814801
0.00494244
-0.00575724
-0.00425633
0.00950291
-0.00524664
0.000728347
0.0066336
-0.00736196
0.00679302
-0.00606468
0.00161744
-0.00161629
0.00845742
0.00286847
-0.0113259
0.0042598
0.00419763
-0.00527157
0.00814004
0.0100982
-0.00845798
0.00240011
0.00745863
0.00963548
0.00752075
0.00604257
-0.00420479
-0.0018378
-0.000340176
-0.00579495
0.00613519
0.00531682
-0.00565697
-0.000232935
0.00677527
-0.00654233
0.00542163
-0.00565457
0.00542836
-8.53905e-05
-0.00534296
0.0176659
-0.01665
-0.00101596
-0.00897548
0.0195511
-0.0105756
0.027274
-0.0125208
-0.0147532
0.0269485
0.000325462
0.019713
-0.0109622
0.00196041
-0.000246053
0.00769813
-0.00745208
0.0066825
-0.00683865
0.000156156
0.00962217
-0.00800641
0.00340614
-0.00995286
0.0130283
0.00141281
-0.00141219
0.00462967
-0.00448989
-0.000139775
-0.00607653
0.0089701
0.00851527
-0.0109712
0.0218583
-0.00945404
0.00827674
-0.0230299
-0.032484
0.00955365
-0.00323247
-0.00632118
0.00212096
-0.00804552
0.000676855
0.00736865
-0.00741614
0.00869594
-0.00127976
0.031625
-0.000100567
-0.00439817
0.00439924
-0.00465695
0.00645053
-0.00687976
0.00389729
-0.0290524
0.00519971
0.0238527
-0.0177362
-0.0113163
0.0333885
-0.0281889
0.00302117
-0.00302152
-0.015982
-0.00841581
0.0243979
-0.0229072
0.0139355
0.00897168
0.000915821
-0.000915313
0.00156315
-0.00156327
0.00267237
-0.000248313
0.00437428
0.00151278
-0.00588705
0.00418509
0.00464328
0.00589529
0.000920915
-0.00681621
0.0021411
0.00477744
-0.00691855
0.0004964
0.00661733
-0.00711373
-0.0360254
0.0200434
0.00437956
0.00248959
-0.00686915
0.00683012
-0.00893746
0.00210736
-0.00506972
0.00754804
-0.00247829
0.00176041
0.0068394
-0.00488404
-0.00195536
0.00417211
0.00266729
-0.00559227
-0.000797883
-0.000849722
0.000849601
-0.0214595
0.0382758
-0.0168163
-0.0275249
0.00254096
0.0249839
-0.0203793
-0.00714571
0.0236463
-0.0211055
0.00791062
-0.00404589
7.87807e-05
-0.00652996
-0.00509448
0.0116244
-0.011834
0.00725456
-0.012349
0.020611
-0.0127448
-0.00786618
0.000803278
-0.0305605
0.0178157
0.00925176
-0.00305272
-0.00117519
0.0011761
0.00646756
-0.0125241
-0.0108331
-0.00148627
0.0123195
0.024839
-0.0316037
0.00676476
-0.0102467
0.0350857
-0.00203402
0.00770711
-0.00567309
-0.0087207
0.00668668
-0.00424508
0.00697479
-0.0027297
0.00303086
-0.00584025
0.0028094
-0.0103318
0.0110594
-0.00728638
0.00240234
-0.00186475
-0.00625519
0.000705
0.00843563
-0.00914062
0.00727882
-0.00657382
-0.00918724
0.0118488
-0.00266155
0.00565635
-0.0099157
0.00425935
0.00746226
-0.00990619
-0.000918533
0.000918556
0.000506411
-0.000506071
0.0164532
-0.0100626
-0.00639066
0.00734509
-0.00447926
-0.00286577
0.00696197
0.000383144
-0.00718609
0.00178286
-0.00362829
-0.0035578
-0.00877915
0.00303177
-0.00342579
-0.00729244
-0.00886697
0.000470456
-0.00554134
0.0050709
-0.0375071
0.0154055
0.0221016
-0.0285121
-0.00762311
1.57001e-05
-0.00741024
0.00748207
0.000308968
-0.00355801
-0.00449618
0.00805418
-0.000370197
0.0120531
-0.0116829
0.0107797
0.00134981
-0.0121297
0.00298006
-0.00642027
0.00344021
-0.00209731
0.00507737
-0.00291424
0.00776138
0.0074734
-0.00238629
0.0115999
-0.00921351
-0.0115735
-0.000633189
0.00063363
-4.44989e-05
-0.000588048
-0.0100216
0.00878345
-0.00449434
0.00650886
-0.00201452
0.00124787
-0.0057422
0.000191425
-0.00019138
0.00159146