/*--------------------------------*- C++ -*----------------------------------*\
  =========                 |
  \\      /  F ield         | OpenFOAM: The Open Source CFD Toolbox
   \\    /   O peration     | Website:  https://openfoam.org
    \\  /    A nd           | Version:  6
     \\/     M anipulation  |
\*---------------------------------------------------------------------------*/
FoamFile
{
    version     2.0;
    format      ascii;
    class       volVectorField;
    location    "200";
    object      U;
}
// * * * * * * * * * * * * * * * * * * * * * * * * * * * * * * * * * * * * * //

dimensions      [0 1 -1 0 0 0 0];

internalField   nonuniform List<vector> 
29874
(
(7.5313 0.063991 1.05804e-16)
(5.39059 0.0285013 -9.67717e-17)
(5.42316 -0.121071 1.94793e-16)
(7.10844 -0.080823 -1.1347e-16)
(7.81355 -0.115997 0)
(7.42955 0.00563308 -9.73535e-17)
(4.78394 0.0970351 1.78731e-18)
(7.12416 0.017013 2.63985e-18)
(7.4483 -0.00469567 -1.25772e-17)
(7.19168 0.211694 -1.62658e-17)
(7.20282 -0.114806 0)
(7.2346 0.10423 -3.57788e-17)
(4.44686 -0.0539984 9.27917e-17)
(8.27065 0.0506198 0)
(6.73858 0.204654 1.05933e-16)
(6.61966 0.139529 0)
(4.27185 -0.0205434 0)
(7.81225 0.215894 -1.38574e-16)
(4.96158 -0.0406939 -1.41595e-16)
(7.99507 -0.0700138 -3.90846e-18)
(7.11889 -0.0228964 3.57627e-17)
(7.07086 -0.0259887 5.67893e-18)
(7.03709 0.0552342 -9.25025e-17)
(7.52267 0.0332953 0)
(5.76257 0.293554 0)
(7.7788 -0.00624012 -2.72461e-17)
(7.95953 -0.0340869 -8.54418e-17)
(5.07586 0.119349 1.1626e-16)
(5.32965 0.124387 2.99747e-17)
(4.93635 -0.115732 4.40013e-17)
(8.04062 -0.080353 -2.57103e-17)
(5.3111 -0.0990319 -2.52368e-16)
(7.84323 0.0630142 0)
(5.19517 -0.0312294 -7.1311e-17)
(7.41451 0.121506 3.18701e-17)
(5.49821 0.107384 -7.65675e-18)
(7.05404 -0.0108946 0)
(7.29584 0.311292 -9.30343e-18)
(7.53528 -0.0938133 -5.51403e-17)
(5.3664 0.0266362 0)
(7.00042 0.0101254 -3.96209e-17)
(7.02994 -0.0203404 8.07459e-17)
(7.31042 0.00633919 0)
(5.63166 0.0449033 -7.30557e-18)
(7.99937 -0.114846 7.48162e-17)
(7.46394 0.0555291 0)
(4.74947 -0.150302 0)
(8.49051 0.043256 0)
(7.25983 -0.0590381 4.52959e-18)
(7.17528 -0.111688 -5.95234e-17)
(4.48688 0.140115 -9.99034e-17)
(7.87982 -0.0915248 0)
(6.77809 0.00305888 -4.34065e-17)
(6.60285 0.0745506 4.31339e-17)
(7.66416 0.16258 -1.83865e-17)
(7.70501 -0.00389008 5.2051e-17)
(4.68493 -0.0782758 0)
(8.14358 0.0288762 0)
(7.1209 -0.0642593 0)
(7.04024 0.0822627 -6.56179e-18)
(7.27349 -0.129818 1.0406e-18)
(7.23877 0.0134284 -7.22963e-17)
(7.22382 -0.234721 -1.05372e-18)
(7.48797 0.0135381 0)
(5.81367 0.0533627 -4.62266e-17)
(7.48381 0.0281812 -3.40158e-17)
(7.77733 0.148253 -1.45699e-20)
(7.63059 0.0142648 6.35349e-17)
(7.66117 -0.0885023 3.33947e-17)
(7.50419 -0.0772374 3.32974e-17)
(8.25193 -0.139448 3.95885e-17)
(7.61493 0.0167388 5.18232e-17)
(7.53146 0.10382 -3.2233e-16)
(5.65344 -0.133158 3.99663e-16)
(7.04537 -0.125589 4.13679e-17)
(8.07149 0.127273 0)
(7.80464 -0.10309 -1.65293e-17)
(8.00545 -0.0933133 1.6662e-17)
(5.01746 0.113349 6.26994e-16)
(7.38627 0.102618 -1.69098e-16)
(5.3513 -0.0944843 -7.90757e-17)
(7.08529 -0.13436 1.13728e-18)
(6.97107 0.143643 0)
(7.42405 0.179437 -3.37936e-17)
(4.91844 -0.517216 0)
(5.30845 -0.350542 -3.53755e-17)
(7.3606 0.00447609 -1.82569e-18)
(7.03282 0.0355041 2.35929e-17)
(7.92717 -0.0940176 9.1419e-17)
(7.53799 -0.0509818 4.84941e-17)
(4.29275 -0.831449 -3.7814e-18)
(7.00791 0.0715624 4.59871e-17)
(6.96109 0.121358 -2.65454e-17)
(7.47503 -0.0283357 2.97572e-17)
(7.23141 -0.119868 0)
(6.7109 0.0817744 0)
(7.11119 -0.21326 -1.71314e-17)
(4.90371 -0.202445 7.80231e-18)
(4.07551 -0.741038 -1.83086e-17)
(6.50024 -0.055689 1.25553e-17)
(7.52074 0.04415 -1.15106e-18)
(7.01908 0.0871166 1.27345e-17)
(6.992 0.0843573 0)
(7.382 0.0784031 -7.6755e-17)
(7.13035 0.0893584 -5.80043e-17)
(4.09288 -0.614559 3.38952e-17)
(4.37865 -0.680124 -2.58495e-17)
(7.51142 0.0137558 4.74456e-18)
(7.60089 0.0192035 0)
(7.26339 -0.122986 -7.15622e-18)
(4.29067 -0.169113 -2.46352e-17)
(7.9285 -0.157456 7.84469e-17)
(7.98561 -0.157802 -8.41634e-17)
(6.97173 0.11145 0)
(6.97709 0.123207 0)
(6.9866 0.0952923 -5.33893e-17)
(6.91027 -0.274547 7.55025e-18)
(7.2578 -0.16691 9.25103e-17)
(-0.880739 -0.150061 -3.44805e-17)
(7.04734 0.0789017 2.37229e-17)
(6.9815 0.119543 3.99656e-17)
(8.18528 -0.182344 -1.0838e-16)
(7.21663 -0.096519 -1.7824e-19)
(7.12389 -0.121831 5.51627e-18)
(7.27799 -0.125191 9.10611e-18)
(6.67779 0.136548 -4.15574e-18)
(7.45772 -0.123244 0)
(7.21313 0.226348 -1.89007e-17)
(7.03228 0.0994871 -4.58094e-17)
(6.6248 -0.252881 3.66391e-17)
(6.99956 0.00657052 0)
(6.79937 -0.236101 2.65577e-17)
(7.17051 -0.10957 -4.70512e-17)
(7.08253 0.0901445 9.44202e-17)
(7.29308 0.113433 3.74442e-17)
(7.11451 0.0517742 -3.22418e-17)
(7.25629 0.115565 7.33856e-17)
(7.00967 0.0129168 -9.42676e-18)
(7.33686 0.254013 8.01601e-19)
(7.10831 -0.159001 5.92178e-17)
(7.71638 -0.26022 -6.55156e-18)
(7.77458 -0.0343965 0)
(7.02297 -0.194274 -2.31433e-17)
(7.47929 0.264072 -2.25401e-17)
(7.21586 -0.0608323 -4.95382e-17)
(7.15295 0.18498 -8.08497e-18)
(7.36534 0.0315951 3.24399e-17)
(7.3114 0.0686028 6.02034e-17)
(7.00336 0.0061618 -2.83474e-18)
(6.62619 0.129573 -7.8746e-18)
(7.77529 0.10394 3.07447e-17)
(7.85663 -0.100052 1.36587e-17)
(6.47551 0.19958 0)
(6.93055 -0.0900645 1.35768e-17)
(7.37949 -0.0714591 2.47077e-17)
(7.02608 0.056075 3.66282e-17)
(7.10791 -0.0132361 2.05994e-17)
(7.67338 -0.161725 -3.38751e-17)
(7.90952 -0.0773782 3.51305e-18)
(7.92848 -0.112266 0)
(7.68364 -0.116249 -6.42457e-17)
(7.25587 0.103869 1.76873e-16)
(6.92693 0.153118 -6.16953e-16)
(7.67022 -0.163781 0)
(7.77718 -0.173504 0)
(7.76273 -0.152257 6.54112e-18)
(7.7037 -0.161007 0)
(7.20962 -0.0653818 0)
(7.10156 -0.0149319 -5.33362e-17)
(7.51982 -0.172435 1.80039e-17)
(7.77724 -0.105068 0)
(7.6937 -0.150834 0)
(7.61424 -0.111902 -1.01096e-17)
(4.70553 -0.233466 -3.32899e-17)
(4.44699 -0.171496 6.53998e-18)
(7.50954 -0.132631 0)
(7.31952 -0.155875 1.51968e-17)
(-1.07004 0.128567 -3.72939e-17)
(6.97275 0.0177913 -1.45798e-16)
(6.82702 -0.0249569 7.40391e-17)
(-1.33971 0.00796372 0)
(-1.22444 0.0670434 0)
(4.98845 -0.0792067 -1.29577e-17)
(6.94571 0.102447 -3.10059e-17)
(6.63108 -0.0405125 1.97654e-18)
(8.19701 0.0412914 -3.37775e-17)
(7.02825 0.121025 -1.17291e-17)
(7.01848 0.104196 -8.13137e-19)
(7.03084 0.0729313 2.09854e-18)
(6.98517 0.115915 2.01516e-17)
(6.98767 0.091723 1.46331e-17)
(8.28038 -0.1307 9.54873e-17)
(6.93883 -0.113018 7.07668e-17)
(6.76514 -0.192479 -3.73738e-17)
(5.21434 0.0259824 -3.58581e-17)
(7.08254 0.0631969 2.16998e-17)
(7.04469 0.0865312 4.5584e-17)
(7.60603 0.14827 0)
(-1.23159 -0.0711768 4.55497e-17)
(-1.53284 -0.00909207 0)
(7.72648 0.18047 5.99561e-18)
(8.023 -0.0840415 0)
(7.64288 0.44489 -1.23338e-17)
(7.61015 0.272806 -1.36679e-16)
(6.98626 0.0790175 0)
(6.811 0.0975267 4.52983e-17)
(6.91224 0.078906 6.64307e-17)
(7.33336 0.0787062 3.08123e-16)
(7.1211 -0.162274 -5.186e-17)
(6.91938 -0.222759 -2.83994e-17)
(7.12891 -0.0180275 4.06613e-17)
(7.31726 0.0229974 -2.11743e-17)
(6.44588 -0.140143 -5.82316e-17)
(6.83344 0.0753758 -1.31614e-16)
(7.26213 0.199069 2.74252e-17)
(7.19621 -0.195837 -4.63328e-17)
(7.27479 -0.174968 -4.08317e-18)
(7.21534 -0.150585 -2.28339e-17)
(7.29194 -0.127838 1.44534e-17)
(7.46594 -0.134042 0)
(7.61931 -0.00440049 -9.4339e-17)
(8.24762 -0.0748486 -3.04535e-17)
(6.91898 0.00707318 4.04232e-17)
(7.44696 -0.064903 -3.25411e-18)
(7.00164 0.049757 -6.29464e-17)
(7.31699 0.0500958 0)
(7.60169 -0.0179242 5.4594e-18)
(7.45361 -0.124324 -5.41796e-18)
(7.78608 0.155068 -2.44556e-17)
(6.99033 0.213871 -1.91439e-17)
(7.00385 0.0214841 0)
(7.0018 0.0416335 5.1475e-17)
(7.39402 -0.0772598 -1.24814e-17)
(7.25564 -0.0526138 1.16048e-17)
(6.84286 -0.0835108 3.85122e-17)
(6.9697 -0.0750814 0)
(6.5699 -0.226024 0)
(7.76707 -0.109659 -2.11593e-17)
(7.60081 -0.12686 9.4966e-18)
(7.82675 0.0806263 -8.8252e-18)
(8.02278 -0.0747479 5.88132e-17)
(1.4913 0.295441 -1.01025e-17)
(3.87474 -0.755804 6.82436e-18)
(5.73312 2.59638 -3.57398e-18)
(6.10565 2.70301 0)
(3.65447 -1.21144 1.12222e-17)
(3.58519 -1.15062 1.14385e-17)
(7.08833 -1.94794 1.32775e-18)
(6.6036 1.07292 1.66336e-17)
(7.45766 -1.63369 1.05193e-19)
(4.63207 -0.862209 -1.87568e-17)
(6.56309 1.60318 1.09212e-18)
(7.34763 -1.65386 -2.72826e-18)
(4.29768 -0.518921 0)
(7.13923 -0.307286 -6.23274e-18)
(3.94312 -0.700818 -1.94903e-17)
(4.30243 -1.03508 -6.6174e-19)
(-0.461798 -0.26502 9.13044e-17)
(7.49124 -1.59357 1.26597e-19)
(4.96674 -0.517517 1.16366e-18)
(3.57392 -1.33712 9.49405e-19)
(4.42239 -0.412701 -1.55244e-19)
(4.29315 -1.09443 0)
(4.33215 -1.38784 9.92305e-19)
(4.98643 -1.53864 2.19504e-18)
(4.84251 -1.64335 1.14807e-18)
(5.0553 -1.68026 -7.64846e-19)
(6.12335 2.25226 -2.29059e-18)
(6.03063 2.40253 2.52776e-18)
(-0.49502 0.376319 0)
(3.80594 -1.27417 2.36927e-18)
(3.74864 -1.19273 -1.63934e-17)
(6.88015 -1.44542 2.8522e-18)
(6.9075 -1.62152 -2.15057e-18)
(6.68199 2.82071 5.82773e-19)
(5.23451 2.73557 2.97665e-19)
(3.47514 -1.83778 1.30245e-18)
(-0.308225 -0.15878 -5.73916e-17)
(5.71435 2.45594 -4.76353e-18)
(6.8425 -2.06545 0)
(6.92631 -1.99459 8.86354e-21)
(6.83495 1.72933 1.5248e-19)
(6.75356 1.72952 0)
(6.38559 1.96598 -2.9447e-18)
(6.44262 2.01691 0)
(6.46011 -0.246152 0)
(6.64688 1.82689 -1.66817e-18)
(6.71342 1.8233 1.44435e-18)
(3.95059 -0.781686 2.66788e-17)
(4.00146 -0.807276 2.6472e-17)
(5.22063 2.55664 -4.84216e-18)
(5.58735 2.91735 0)
(5.59522 2.88585 0)
(6.76467 -1.82483 1.00136e-18)
(6.47011 -1.81078 2.05451e-18)
(4.78963 -0.65923 0)
(4.92081 -0.573531 0)
(3.48534 -1.53929 1.4511e-18)
(7.13769 -1.55907 6.42802e-18)
(7.21024 -1.52298 -1.45158e-18)
(6.93185 -1.45139 -5.17025e-18)
(3.47228 -1.42452 1.45676e-18)
(6.16163 2.15442 0)
(3.36859 -0.871324 -1.5897e-18)
(5.63172 2.88243 6.48948e-19)
(5.72311 2.96511 -6.88457e-19)
(3.87259 -1.23294 8.65494e-18)
(6.83144 -0.353385 0)
(3.32153 -1.56022 0)
(-0.2591 0.0271593 0)
(5.25599 -1.84187 8.34578e-19)
(5.22115 -1.81417 -4.26088e-19)
(3.40688 -1.62048 0)
(3.5721 -1.64549 -2.28769e-18)
(3.33285 -1.69494 1.38567e-18)
(4.67516 -0.511508 5.41797e-19)
(4.65958 -0.561256 -3.01694e-21)
(6.87402 -3.01788 -9.76828e-20)
(6.02945 2.24622 4.10459e-19)
(5.97337 2.34162 6.42574e-18)
(5.00013 -1.5791 1.53027e-18)
(6.01974 -1.82562 0)
(3.75267 -1.36605 -6.58496e-18)
(3.88152 -0.637031 0)
(5.89146 2.3245 -6.93813e-18)
(5.85038 2.37343 0)
(5.8649 2.22652 0)
(7.06122 0.234368 -1.60248e-17)
(4.88275 -0.592857 -1.51646e-18)
(4.82366 -0.628306 -1.63553e-18)
(6.60903 0.456264 -7.52009e-17)
(6.71609 0.349637 -4.71983e-17)
(4.62909 -0.643033 1.04677e-18)
(4.4814 -0.636526 -1.3838e-18)
(5.34923 -1.80748 0)
(4.00798 -1.54386 1.70716e-19)
(6.11379 2.55671 0)
(6.21645 2.48361 0)
(6.16619 2.45633 0)
(6.18106 2.57683 0)
(3.78102 -1.12158 -4.70662e-18)
(3.15038 -1.70664 0)
(3.89321 -0.756885 9.1351e-18)
(3.90614 -0.736211 -5.87069e-18)
(3.89648 -0.694602 -1.55421e-17)
(3.90274 -0.772241 -4.50244e-18)
(6.31335 2.34519 6.20149e-19)
(6.25161 2.30887 4.65916e-18)
(5.64025 -1.82831 7.90511e-19)
(5.66565 2.93364 5.85378e-19)
(6.59874 1.4877 1.10241e-17)
(7.39811 -0.381691 0)
(7.23243 -1.8108 3.7535e-18)
(6.84807 -1.81172 1.01049e-18)
(7.20601 -1.74435 0)
(7.10787 -0.330789 2.6345e-18)
(3.93619 -0.611254 0)
(3.91656 -0.444582 0)
(5.95464 -0.806362 0)
(-0.943478 0.376038 3.50683e-17)
(4.8136 -1.43389 3.0292e-20)
(3.15043 -1.48323 -8.9131e-19)
(6.0799 -1.66811 0)
(3.90018 -0.827028 4.01914e-18)
(3.87876 -0.938537 8.66986e-18)
(5.6029 2.93209 -1.49916e-19)
(5.63817 2.93485 -2.4011e-20)
(5.58809 2.95525 2.16472e-19)
(6.23594 0.262061 -7.41007e-17)
(4.02024 -0.448171 2.7037e-17)
(3.96508 -0.578493 1.94657e-18)
(4.04477 -0.568117 -2.90604e-17)
(3.9624 -0.461063 -2.03979e-18)
(6.99116 0.158926 2.02022e-17)
(7.06706 -0.235873 -2.78371e-18)
(4.03696 -0.388644 -2.17445e-17)
(4.21553 -0.242202 -5.17061e-18)
(4.20812 -0.381266 9.5641e-19)
(4.06715 0.168035 0)
(4.23804 0.0128118 2.36453e-17)
(3.74355 -1.09284 0)
(3.76346 -1.02327 1.33163e-20)
(6.68417 -0.507845 6.6364e-18)
(6.7142 -0.329038 2.90739e-18)
(6.01124 2.46715 -6.50179e-19)
(6.07052 2.54281 6.84433e-19)
(5.98971 -0.842252 4.40789e-18)
(6.2799 2.4867 0)
(6.31785 2.41847 0)
(6.32099 2.57886 0)
(5.7921 -1.71641 2.12544e-18)
(6.30268 -1.80037 0)
(3.85892 -0.762145 -5.7759e-18)
(5.74638 -1.61069 -2.00573e-18)
(5.15983 -1.52252 2.60539e-18)
(5.53636 -1.83473 0)
(5.36097 -1.81818 -9.1958e-19)
(5.53063 -1.81628 3.26094e-20)
(5.36488 -1.85154 0)
(6.73805 0.25439 0)
(4.85681 -1.62221 -3.80995e-20)
(5.08863 -1.67181 6.08037e-19)
(5.08161 -1.6352 -8.01559e-19)
(6.52338 -0.397779 -3.52656e-17)
(6.54976 -0.494689 4.80412e-17)
(6.59231 -0.339939 -5.49197e-17)
(3.87411 -0.586728 5.13795e-18)
(3.89282 -0.501301 -5.20514e-18)
(3.87084 -0.520446 -2.62247e-18)
(3.90308 -0.577033 2.49236e-18)
(4.70463 -0.570341 -2.76147e-17)
(4.52889 -0.683779 9.62482e-19)
(4.63342 -0.691297 0)
(4.64993 -0.49455 1.6813e-17)
(6.83952 0.529323 1.89723e-17)
(2.81946 -2.01971 2.43423e-18)
(3.12112 -1.95447 9.75436e-19)
(3.83957 -1.69445 8.83933e-20)
(3.67974 -1.66758 -4.60877e-18)
(3.84785 -0.511945 -4.58459e-18)
(3.82657 -0.436015 5.02669e-18)
(3.82556 -0.559052 0)
(4.42354 0.149092 0)
(4.19074 0.333175 8.45659e-18)
(4.65072 -0.430566 0)
(4.47337 -0.269531 0)
(4.4199 -0.430399 0)
(4.65425 -0.312099 0)
(6.91846 -1.86134 2.01051e-20)
(6.91883 -1.90934 0)
(4.2855 -1.53148 8.14997e-19)
(4.42713 -1.56324 0)
(4.58284 -1.56728 5.87586e-20)
(4.15102 -1.50147 -2.45833e-18)
(4.36917 -0.631377 0)
(4.23749 -1.39652 -3.8716e-18)
(3.83288 -1.36454 0)
(4.41788 -0.272869 -6.46747e-19)
(4.57884 -0.595727 0)
(4.18728 -0.587548 -2.14254e-17)
(4.35265 -0.45081 0)
(4.24123 -0.429025 0)
(4.34668 -0.577461 2.60869e-17)
(3.99966 -1.17327 3.69004e-17)
(3.94952 -1.25847 -1.32648e-17)
(6.93443 0.126461 -4.70076e-18)
(6.62493 -0.0710453 8.48577e-17)
(6.58976 -0.169383 0)
(6.54859 -0.133519 8.40305e-17)
(6.65995 -0.146549 0)
(3.98106 -1.08702 -1.59475e-17)
(4.02443 -0.993726 0)
(3.924 -1.05536 0)
(4.78667 -1.17568 -2.21129e-17)
(4.92154 -0.835653 -1.00516e-17)
(4.76806 -0.928235 1.03423e-17)
(4.45015 -1.59891 6.54807e-19)
(4.4314 -1.60335 1.11872e-18)
(4.62552 -1.6073 -6.38979e-19)
(4.26672 -1.57615 -1.41831e-18)
(5.60662 -1.68961 -2.90729e-18)
(5.19943 -1.55504 -1.99781e-18)
(5.61783 -1.64333 6.7914e-19)
(5.16497 -1.5966 -1.76266e-18)
(4.39036 -0.785228 0)
(4.35789 -0.840943 0)
(4.26915 -0.725888 -1.6161e-19)
(5.17361 2.73223 1.56277e-19)
(7.36529 -0.173098 -2.57218e-17)
(7.18534 -0.199986 3.01167e-18)
(7.26017 -0.189562 1.6028e-17)
(7.29083 -0.17466 -1.09157e-17)
(5.06871 2.88134 -8.38991e-19)
(5.42833 -0.268563 4.63894e-17)
(5.76928 2.48503 -2.36332e-18)
(5.76821 2.55525 -1.11499e-18)
(5.85306 2.44361 1.96841e-18)
(3.96916 -1.36763 0)
(3.88018 -1.46837 0)
(4.09188 -1.41099 2.31e-17)
(6.38561 -1.47545 1.37279e-18)
(3.99969 -0.0355143 0)
(4.12517 0.000547603 2.32331e-19)
(4.08938 -0.0785047 0)
(4.04717 0.0838977 -9.67648e-18)
(6.9361 0.4043 2.43928e-17)
(3.87455 -0.976653 2.48301e-18)
(3.78961 -1.01839 -5.56684e-18)
(3.81885 -0.967588 2.98661e-18)
(3.86281 -1.03827 0)
(8.00906 0.183314 -5.75855e-17)
(-1.00924 0.226182 5.7184e-17)
(7.66603 -0.321136 3.90747e-17)
(8.0475 -0.0343767 0)
(-1.28241 0.110319 -2.3488e-17)
(7.07621 0.27149 -1.32173e-17)
(4.64903 0.0612163 -6.73088e-17)
(6.99721 0.0198679 3.91439e-17)
(7.00726 0.100953 -2.50247e-17)
(7.00648 0.0772203 -5.00141e-17)
(7.92689 -0.200156 0)
(5.34065 -0.477416 -2.15357e-18)
(6.7698 0.258003 0)
(6.81282 0.215556 1.78025e-17)
(6.11637 -0.0849127 0)
(6.36151 0.144561 -8.56364e-17)
(6.25844 0.179157 4.61362e-17)
(6.54969 0.0521464 2.42038e-17)
(6.48287 0.0888381 0)
(5.72228 -0.731777 2.47413e-18)
(6.92333 0.163061 -4.28471e-17)
(6.90178 0.194178 -4.70942e-17)
(5.57076 -0.277148 -2.881e-17)
(6.95825 0.276478 1.83484e-17)
(6.94731 0.325689 1.21369e-17)
(-0.175767 -0.29424 1.86392e-17)
(7.00892 0.0705473 4.42178e-17)
(7.66366 0.302556 -1.80635e-17)
(-0.543759 -0.181817 -6.44132e-17)
(6.99544 0.134746 -9.91662e-18)
(6.97131 0.214381 2.94763e-17)
(7.17979 0.26489 0)
(5.61578 -0.418555 -5.63678e-17)
(7.37299 -0.174964 8.45888e-17)
(5.49249 -0.610016 1.31903e-18)
(5.72316 -0.685012 -5.10996e-18)
(6.87669 0.837127 1.39611e-17)
(7.01156 0.110799 3.31271e-17)
(7.29378 -0.215244 -2.22506e-17)
(7.34498 -0.230126 -7.6554e-17)
(7.29171 -0.27618 2.51026e-17)
(7.59074 -0.168934 3.79638e-17)
(6.64218 -0.368925 6.2605e-18)
(6.63218 -0.457882 -8.59339e-18)
(7.13605 -0.171606 7.2803e-19)
(7.12123 -0.20933 2.01399e-17)
(7.04783 0.194863 -7.49582e-18)
(6.45167 -0.288166 -6.12805e-17)
(6.76185 -0.373039 0)
(6.74445 -0.473342 0)
(6.89408 -0.136541 -6.55633e-18)
(6.79858 -0.138365 0)
(-0.656918 -0.179025 0)
(0.194411 -0.283715 8.28355e-18)
(7.5365 -0.126754 2.8996e-17)
(7.62172 -0.10389 5.28922e-18)
(7.2371 0.374119 1.82805e-19)
(7.05921 -0.206441 0)
(7.13509 -0.178395 0)
(6.71821 0.200734 -1.65724e-17)
(7.50707 -0.338566 0)
(7.00275 0.0645285 -2.28741e-17)
(6.99774 0.0803226 8.2598e-17)
(7.00704 0.165911 -8.67661e-19)
(6.61358 -1.75129 2.87025e-18)
(6.89511 -1.7304 -2.29867e-18)
(6.74988 -1.68412 2.07049e-18)
(5.79472 -0.012133 3.56218e-17)
(7.00937 0.141924 0)
(4.92085 -0.109345 -2.17329e-16)
(7.32376 -0.30086 0)
(6.6542 -0.0633756 -2.59039e-17)
(6.42766 -0.0863849 1.11256e-17)
(6.32409 -0.0807809 1.19501e-17)
(7.09922 0.31059 -2.32805e-17)
(0.976808 0.153841 0)
(7.41127 -0.326023 7.20276e-18)
(7.37526 -0.296039 -3.43881e-17)
(5.00303 -0.311341 0)
(5.16543 -0.284865 0)
(3.80238 -0.945229 6.84142e-20)
(7.77969 0.20596 -8.98492e-18)
(7.22269 0.216684 -3.96869e-17)
(7.2533 -0.0328844 0)
(8.31473 -0.0602611 -9.63454e-17)
(7.14732 0.344713 0)
(7.11521 0.305618 1.12959e-17)
(6.94765 0.177469 -3.23013e-17)
(5.01655 -0.63986 0)
(8.11992 0.0854684 -3.7307e-17)
(7.9089 0.155253 -7.89663e-17)
(6.06476 -0.0396267 4.43841e-17)
(5.91788 0.0128481 -5.20438e-17)
(7.33709 0.0873494 -1.0984e-17)
(6.2451 2.13642 1.89973e-18)
(6.29395 2.02064 -2.07518e-18)
(6.04684 -0.126176 -2.11886e-17)
(7.00057 0.0194839 0)
(6.9991 -0.296206 -2.21151e-18)
(7.07626 -0.231891 -2.1779e-18)
(7.02198 -0.256411 0)
(8.09467 -0.0399758 1.16703e-17)
(8.02207 0.0130786 -2.34748e-17)
(4.27329 0.124867 0)
(4.17736 0.22989 1.80665e-17)
(6.29413 2.19021 3.3144e-18)
(6.3996 2.13425 -3.0635e-18)
(6.81904 0.0313276 1.36753e-16)
(6.61055 0.0285847 4.99611e-17)
(-0.922196 -0.229433 7.17064e-18)
(5.14664 -0.0495197 4.00869e-17)
(7.06632 -0.0101779 -9.22199e-17)
(6.95482 0.123033 -3.83563e-17)
(6.88819 0.140801 6.29559e-17)
(6.84137 0.171361 -5.47274e-17)
(7.00917 0.0511465 0)
(7.00193 0.0407181 -1.17842e-17)
(6.94878 -0.326365 2.21974e-18)
(6.95704 -0.274241 -7.57237e-18)
(7.02677 -0.238998 0)
(4.11958 -1.34435 -2.5553e-17)
(4.06925 -1.19389 -7.16161e-18)
(4.13485 -1.09761 0)
(6.89288 0.158993 -6.63e-17)
(6.85737 0.222417 -3.67496e-17)
(6.87961 0.191876 4.41809e-17)
(6.82901 0.235624 5.97524e-17)
(7.79391 0.311264 9.5559e-17)
(7.7503 0.273535 -4.11346e-17)
(7.7988 0.204798 0)
(6.77658 -0.0760619 2.90703e-17)
(3.6274 -1.32288 -6.24659e-18)
(6.64258 0.0824518 -2.42656e-17)
(6.60435 0.125994 4.15045e-18)
(6.97448 0.0457423 1.04865e-16)
(7.29494 -0.0919887 1.28913e-16)
(4.09728 -1.5565 0)
(3.9301 -1.59295 4.24483e-18)
(5.78156 -0.136264 -8.32845e-17)
(5.63129 -0.168158 3.45494e-17)
(7.40487 0.0971909 0)
(6.8661 -0.0854031 7.38172e-17)
(7.54844 0.0751198 -4.42642e-17)
(7.36509 -0.163798 0)
(6.91169 -1.88022 1.91786e-18)
(7.05883 -1.88157 -2.31835e-18)
(5.25891 -0.0964968 0)
(5.40736 -0.130193 -4.47104e-17)
(5.53507 -0.0545214 3.04339e-17)
(4.51758 0.00377526 0)
(4.65446 -0.0111993 1.98775e-17)
(6.86748 0.254542 -1.53158e-17)
(6.85503 0.293071 -1.40768e-17)
(6.82745 0.305146 0)
(7.92331 -0.184726 -6.63735e-17)
(7.05484 0.00807344 0)
(6.96942 -0.00723092 -3.9315e-17)
(6.55061 -0.0206189 -1.54843e-16)
(6.40879 -0.0971728 0)
(6.46437 -0.0227139 9.25039e-18)
(7.10682 0.237539 1.54559e-17)
(7.1102 0.271855 2.9364e-18)
(6.30741 -0.0858034 0)
(6.28178 -0.000144051 -2.28028e-17)
(6.17934 0.0400207 -1.04873e-16)
(7.01329 0.028354 0)
(7.47745 -0.307821 0)
(7.61799 -0.266752 0)
(7.62681 -0.240233 0)
(-1.46193 0.244562 -2.34498e-17)
(-0.0665516 -0.277948 -5.02197e-18)
(7.15437 -0.237131 0)
(7.10847 -0.278143 1.10087e-17)
(7.05931 -0.263945 -6.96115e-18)
(4.1525 -0.862027 5.31521e-18)
(4.10438 -0.983209 0)
(7.71454 -0.125095 2.94217e-18)
(7.96745 0.066519 6.18674e-17)
(7.70892 0.142654 0)
(8.38778 0.217793 5.91511e-19)
(8.34408 0.247392 0)
(6.20219 -0.277716 9.40353e-20)
(4.99014 -2.13346 1.13599e-20)
(6.66007 0.516468 -7.12183e-17)
(4.22362 -0.507519 8.58948e-19)
(6.41991 -0.177453 -2.67239e-20)
(3.62595 -0.10102 6.67952e-18)
(4.08034 -0.410562 0)
(4.94433 2.77549 9.02335e-19)
(5.65794 -2.8311 0)
(5.67356 -2.89946 0)
(6.9699 -1.78819 0)
(5.82728 2.6108 0)
(5.84138 2.52376 3.42858e-20)
(5.85451 2.95721 0)
(5.85964 2.95686 -1.70533e-21)
(6.33262 -0.458425 0)
(7.39328 -0.367797 -1.39171e-19)
(6.98807 -2.2436 0)
(3.58063 -1.56422 7.90052e-19)
(5.22659 -0.575142 1.22923e-19)
(6.40558 -2.23153 5.10299e-20)
(6.43502 -2.2743 -6.1204e-20)
(6.37236 -1.85189 -7.48763e-20)
(6.3948 -1.86198 0)
(6.64142 -0.139745 0)
(7.48719 0.247908 0)
(1.11074 -0.931107 3.47037e-17)
(3.63301 -0.489057 -2.3747e-18)
(1.4313 -1.3583 -5.36997e-18)
(1.23789 -1.25225 0)
(5.20902 2.9989 1.6472e-19)
(6.97936 -0.16081 0)
(6.96247 -0.136839 0)
(5.72295 -0.498893 0)
(3.10991 -1.81341 0)
(7.0321 -0.323033 -2.99351e-21)
(3.11207 -0.470901 -2.90689e-18)
(6.70165 0.0513024 -1.36737e-20)
(3.21293 -1.11513 -9.24768e-19)
(6.31176 -0.455393 -8.14635e-23)
(4.87124 -0.583237 0)
(4.82693 -0.604968 0)
(5.03894 2.96094 0)
(7.48336 -0.415794 -1.53991e-19)
(5.73083 -1.96353 4.41084e-19)
(2.75236 -2.55464 1.46107e-18)
(2.92504 -2.35608 4.04865e-20)
(6.66357 -0.133963 0)
(7.92747 -0.881412 0)
(4.92486 2.76157 -2.31695e-18)
(4.92878 2.73509 0)
(6.27837 3.18356 7.98779e-21)
(6.76954 -0.649422 1.67406e-17)
(7.38442 -0.186009 0)
(6.85337 -0.090867 1.26312e-20)
(6.78259 -0.723934 1.98532e-17)
(4.76982 2.82708 -4.50244e-20)
(6.84594 -2.1987 -1.64676e-20)
(6.84326 -2.15925 1.78323e-20)
(6.72764 -1.82014 3.03542e-19)
(6.75283 -1.82649 1.09106e-18)
(6.9962 -0.228679 -3.98206e-21)
(7.01262 -0.263244 -5.84729e-22)
(7.98837 -0.612006 5.54769e-19)
(5.86461 2.52452 0)
(5.84835 2.50258 -3.18467e-20)
(7.78176 0.509878 6.87997e-19)
(6.43703 -0.279755 2.29762e-20)
(3.90934 -2.19628 1.47776e-18)
(5.59215 -3.10133 -2.05366e-18)
(4.87919 2.66311 -1.08234e-19)
(6.5451 -2.37887 2.5261e-20)
(7.33459 -0.446407 0)
(6.09235 -2.46642 4.08053e-18)
(5.78384 0.770337 -4.86843e-18)
(6.50999 -1.7364 0)
(7.48313 -1.57352 5.86437e-18)
(8.179 -0.25906 1.67943e-20)
(2.49578 1.06639 -2.64106e-18)
(5.20972 2.28602 2.23495e-18)
(5.19727 2.21718 -2.20017e-18)
(6.79667 0.00860314 0)
(4.29332 -0.57567 -1.46335e-19)
(4.27474 -0.679138 -1.37423e-19)
(5.74984 2.95806 2.63428e-19)
(6.45317 -2.35738 4.61082e-20)
(4.90763 -0.168672 -1.19487e-19)
(3.77828 -0.542121 6.32243e-18)
(3.75686 -0.398505 1.10078e-17)
(7.21959 -1.62752 9.91545e-20)
(6.31462 -0.342555 7.90584e-20)
(6.32116 -0.32567 -1.26102e-19)
(4.57816 -2.25943 -6.44101e-19)
(4.40952 -2.31691 -1.76681e-20)
(7.68715 -0.255901 1.2542e-19)
(7.67442 -0.209447 7.83388e-20)
(7.1268 -1.86252 0)
(6.81591 -0.418206 -3.47333e-20)
(4.822 -0.421919 6.69951e-19)
(5.00638 -0.463332 9.03492e-19)
(4.9178 2.72685 -1.01095e-19)
(6.84691 -0.320816 1.33673e-20)
(2.82683 -2.43587 -1.21992e-18)
(4.89143 2.82622 1.29516e-18)
(4.93846 2.84271 2.39845e-19)
(5.36432 -0.75643 -6.82192e-19)
(5.4908 -0.848692 -3.33801e-19)
(7.55289 -1.20076 0)
(6.60848 -0.447002 8.65956e-20)
(7.31854 -0.0558523 0)
(7.25445 -0.12167 4.38037e-20)
(6.49595 -0.41309 -1.21563e-19)
(4.46162 -1.16236 0)
(4.36328 -1.14217 0)
(6.39407 -0.319869 1.70005e-20)
(7.21863 -0.505021 -2.77846e-20)
(7.02109 -1.86618 0)
(6.03112 -0.312159 0)
(7.41489 -3.55893 0)
(5.23123 -2.16618 3.16481e-19)
(5.19804 -2.21096 5.52674e-19)
(5.47257 -0.644977 8.66803e-19)
(5.47819 -0.670042 -8.01958e-19)
(7.40208 -1.51427 -1.25545e-20)
(7.97 -4.37319 6.50904e-19)
(7.67425 -2.70747 5.96722e-20)
(1.15498 -3.06272 5.46614e-18)
(7.67831 -3.73643 2.21859e-19)
(5.94177 2.16866 -5.4034e-20)
(5.9788 2.76354 5.26497e-19)
(7.27452 -1.04971 -1.0069e-19)
(7.34312 -1.02997 4.40897e-20)
(4.95748 2.58601 5.37879e-20)
(4.47743 -0.53799 5.55196e-19)
(3.79427 -2.28873 3.80572e-18)
(6.48271 -0.164339 0)
(8.70945 -2.06071 1.3535e-18)
(7.01376 -0.0458014 1.98869e-20)
(6.99553 -1.47518 0)
(6.61136 -0.386725 4.13446e-20)
(6.05427 1.92351 8.53756e-19)
(6.00974 1.86596 -1.73967e-18)
(7.70553 -0.819403 1.54277e-19)
(7.67797 -0.754683 -2.74788e-19)
(6.18193 -2.56269 -2.64775e-19)
(5.30655 -0.570316 -4.66858e-19)
(5.63597 2.94544 -1.80727e-19)
(4.97442 2.88412 -1.22896e-21)
(6.79859 -0.0306296 -4.43578e-21)
(6.20706 -0.316003 8.94781e-20)
(6.76529 -0.389104 0)
(2.49001 -1.32711 0)
(4.08839 -0.363466 0)
(7.09043 0.685769 1.77833e-20)
(7.48222 -1.0935 8.81333e-20)
(7.07473 -1.86631 -5.664e-20)
(6.97298 -1.90883 0)
(5.61716 -0.751601 -8.0432e-19)
(5.64912 -0.76401 0)
(2.38832 -1.15141 -1.35985e-18)
(2.52063 -1.20099 -1.64531e-18)
(6.78258 -1.41066 0)
(7.80358 -0.548618 0)
(7.78401 -0.51171 0)
(6.59367 -1.82288 0)
(6.4638 -1.84788 0)
(5.40553 2.93722 5.97175e-20)
(5.00932 2.95633 6.03417e-20)
(4.98815 2.94114 -2.65878e-19)
(5.66124 2.96435 -1.97527e-19)
(7.2449 -1.73826 1.09096e-19)
(7.15431 -1.81245 4.35898e-20)
(4.90671 2.74961 2.41434e-19)
(6.08785 -0.320034 0)
(6.18202 -0.327231 1.70156e-19)
(6.19113 -0.348173 8.89994e-20)
(6.87452 -0.181658 -1.91695e-20)
(6.93154 -0.147949 3.79219e-21)
(8.12253 -2.13785 6.88676e-19)
(8.18669 -2.14287 0)
(5.71025 2.37996 3.22968e-21)
(7.04436 -1.39402 3.45173e-20)
(7.03529 -1.4643 0)
(3.6265 0.00982033 -7.33399e-18)
(3.6166 -0.0372644 8.38954e-18)
(3.60397 0.0987817 -3.6909e-18)
(6.15008 -1.81363 4.82795e-19)
(6.38443 -0.960062 0)
(6.52902 -1.35057 0)
(6.22464 -0.556153 2.18324e-19)
(6.16155 -2.17402 0)
(5.44326 -0.570373 -4.93521e-20)
(5.51079 -0.590819 6.09651e-19)
(6.59344 -1.89203 1.51524e-18)
(7.22742 -1.05392 -1.16522e-19)
(5.8136 2.80899 -1.72058e-19)
(6.54278 0.400432 -3.5651e-20)
(7.80298 -1.05783 0)
(7.84181 -0.942197 0)
(6.38613 -0.631301 4.09113e-21)
(7.13999 -2.1204 1.634e-19)
(5.39509 -2.20359 -1.15728e-19)
(6.43285 1.47052 8.97039e-19)
(7.28022 -0.130742 0)
(7.32152 -0.0978923 0)
(4.70406 -2.11177 3.97219e-19)
(4.95638 -2.06233 0)
(6.805 -3.93294 -4.07719e-19)
(5.61242 -0.651542 0)
(5.36988 -0.720596 1.13918e-19)
(3.40339 -2.96151 0)
(5.76872 2.67803 1.37228e-19)
(4.92564 -2.29701 0)
(5.72889 2.84131 7.18176e-20)
(5.68093 2.86238 -1.62152e-19)
(5.5803 -2.91905 2.37865e-19)
(5.40122 -2.93819 0)
(7.44545 -1.38522 0)
(7.41417 -1.42434 0)
(7.28502 0.347998 0)
(5.75067 2.82522 -7.45817e-20)
(5.79957 2.75092 1.86488e-19)
(5.70117 2.80757 -1.00047e-19)
(5.70257 2.74849 8.46782e-20)
(5.72496 2.79094 1.21145e-21)
(7.05264 -0.249536 -1.83707e-20)
(5.74346 -0.506306 0)
(8.65989 -2.11335 5.59949e-19)
(5.17357 2.99196 1.52917e-19)
(5.43053 2.91127 -8.73531e-19)
(5.4319 2.87193 0)
(3.74917 -2.5072 -3.25953e-19)
(3.79723 -2.59354 3.31691e-19)
(6.58223 -0.190466 -2.46374e-22)
(4.97266 -0.601744 -1.63134e-20)
(7.68845 -1.72122 -3.58053e-18)
(7.4595 -1.63964 3.77098e-18)
(7.62689 -1.80071 2.63929e-19)
(6.31478 -0.286864 8.73177e-20)
(4.14784 -0.461397 -1.30579e-18)
(5.87243 2.92967 -1.15692e-19)
(5.63567 2.77897 3.2866e-20)
(7.70392 -4.28725 -7.38946e-19)
(5.14791 -0.491852 0)
(5.63246 -0.923693 -4.69239e-19)
(5.89604 2.95975 4.15931e-19)
(5.87961 2.9581 -5.59058e-19)
(5.90903 2.96433 -1.03624e-19)
(6.65894 -2.11701 3.69392e-20)
(7.06272 -1.66315 0)
(7.65532 -4.05308 6.71386e-19)
(6.90567 -1.67593 3.23173e-22)
(6.83333 -1.73277 2.61684e-20)
(7.20793 -0.148534 2.45183e-20)
(6.00386 -1.85355 -9.33049e-21)
(5.77762 -1.90791 0)
(3.25666 -1.18252 8.89011e-19)
(7.13788 -4.00032 1.67424e-19)
(6.54181 -2.98804 1.11188e-21)
(5.55347 -2.1034 4.44449e-19)
(7.88617 -1.50139 -3.81229e-20)
(2.91568 -2.1818 -1.12585e-18)
(3.01261 -2.24772 1.49214e-21)
(1.23654 -0.620617 1.03562e-17)
(5.81269 -1.88175 1.5227e-19)
(5.73391 -1.87803 0)
(5.92977 -1.85468 -1.79556e-19)
(3.47597 0.0435426 -1.02908e-17)
(5.45402 -0.539835 -2.14158e-19)
(5.43635 -0.53072 1.08974e-18)
(6.51795 -1.85194 0)
(5.67389 -1.9243 3.96283e-19)
(7.65158 -1.16753 -6.29192e-20)
(7.71376 -1.11924 -7.29915e-20)
(6.57797 -1.05127 -9.82397e-20)
(7.02196 -0.0994684 9.53884e-21)
(4.73139 2.44081 -1.00778e-18)
(3.74682 -0.00490444 0)
(7.30263 -2.00107 0)
(6.39065 1.55217 5.37713e-18)
(6.7546 -2.21918 -9.5852e-22)
(5.15765 2.56534 2.59036e-18)
(5.04888 2.62757 -1.43348e-18)
(6.74086 -1.42019 0)
(6.73308 -1.47922 1.65417e-20)
(6.68824 -1.50637 -6.41703e-20)
(7.52457 -1.87287 2.63887e-20)
(2.6451 -0.610761 -2.46828e-18)
(6.46504 2.89258 -4.69342e-20)
(6.41258 3.0312 -1.54899e-19)
(2.07465 -0.127565 -5.84547e-18)
(6.27265 3.01744 5.45686e-19)
(3.02422 -1.42226 0)
(5.05679 2.83108 4.46833e-19)
(4.99 2.81027 -4.6098e-19)
(6.42676 -1.81572 -2.36716e-19)
(5.77961 -0.971794 -5.7069e-19)
(4.91929 2.84683 0)
(4.89784 2.83819 -5.26137e-19)
(4.80522 -0.498391 -5.73138e-19)
(2.68001 -3.49667 1.16776e-18)
(7.25259 -0.202939 1.19598e-19)
(4.50801 0.33932 -5.0672e-20)
(3.36375 -2.30904 6.28176e-19)
(3.17975 -2.46648 -1.55161e-18)
(5.38936 2.9972 -1.33994e-19)
(6.51013 -1.12002 0)
(4.88459 -0.50524 -6.97472e-20)
(4.90609 -0.538678 0)
(4.83203 -0.512372 6.45287e-20)
(4.72998 -0.405391 -8.57692e-19)
(6.57495 -1.85032 -8.71414e-20)
(6.65115 -1.82149 0)
(6.78551 -1.8082 9.44041e-21)
(6.79602 -1.74682 -2.64445e-20)
(7.15592 -1.76474 3.32419e-20)
(7.2042 -1.7224 -1.22425e-19)
(7.62799 -1.14379 -6.14965e-20)
(7.57418 -1.1577 6.22074e-20)
(7.63765 -1.06224 0)
(5.15817 -0.585327 -2.19332e-21)
(5.07695 -0.587799 -1.04457e-18)
(4.1519 -0.563045 2.34781e-18)
(6.81043 -1.5714 6.87949e-21)
(6.79763 -1.63488 0)
(6.15328 -1.8666 1.38134e-19)
(6.31616 -1.84265 -1.33201e-19)
(4.53671 -1.89676 -2.42924e-18)
(4.63579 -1.93243 1.21851e-18)
(2.89402 -2.7502 -8.82942e-19)
(2.76729 -2.91194 -7.94268e-19)
(7.1281 -0.0498332 7.00503e-20)
(3.49586 -1.45448 -1.36667e-18)