/*--------------------------------*- C++ -*----------------------------------*\
  =========                 |
  \\      /  F ield         | OpenFOAM: The Open Source CFD Toolbox
   \\    /   O peration     | Website:  https://openfoam.org
    \\  /    A nd           | Version:  6
     \\/     M anipulation  |
\*---------------------------------------------------------------------------*/
FoamFile
{
    version     2.0;
    format      ascii;
    class       volScalarField;
    location    "1200";
    object      nuTilda;
}
// * * * * * * * * * * * * * * * * * * * * * * * * * * * * * * * * * * * * * //

dimensions      [0 2 -1 0 0 0 0];

internalField   nonuniform List<scalar> 
29874
(
0.251712
0.207349
0.12157
0.155393
0.178971
0.241614
0.217097
0.141058
0.152903
0.141856
0.268135
0.258117
0.18212
0.263022
0.266035
0.283186
0.17537
0.276909
0.118827
0.141927
0.14066
0.143784
0.14053
0.153401
0.144486
0.177051
0.219553
0.143853
0.233518
0.233644
0.229433
0.195376
0.194619
0.220701
0.151466
0.158013
0.142241
0.162897
0.164082
0.200389
0.139902
0.139654
0.145184
0.13309
0.191264
0.160686
0.178085
0.245066
0.239102
0.239903
0.193796
0.291044
0.267459
0.278904
0.199275
0.192661
0.13486
0.16984
0.166087
0.172031
0.163767
0.149103
0.147477
0.167411
0.123467
0.189825
0.238461
0.176414
0.26222
0.283463
0.154935
0.14835
0.144379
0.109379
0.284832
0.230125
0.231668
0.226024
0.182967
0.164744
0.19233
0.110844
0.138306
0.14667
0.0953838
0.109324
0.148787
0.140873
0.187985
0.163144
0.0701761
0.139489
0.138596
0.145236
0.134499
0.138229
0.135902
0.0982271
0.06121
0.10373
0.15088
0.138563
0.138783
0.167678
0.211669
0.0632883
0.0755559
0.154616
0.158888
0.144383
0.0747865
0.195758
0.205141
0.138505
0.138507
0.138775
0.134771
0.150713
0.000253236
0.142237
0.139772
0.178394
0.13003
0.115205
0.136613
0.1386
0.15305
0.14694
0.142066
0.135
0.140009
0.137056
0.150465
0.143209
0.143567
0.143275
0.146251
0.134504
0.143829
0.233609
0.200303
0.17181
0.278227
0.16954
0.149492
0.15205
0.170745
0.182879
0.139763
0.276416
0.246656
0.240684
0.294373
0.12081
0.135578
0.140099
0.150206
0.161961
0.183641
0.185171
0.166922
0.181111
0.222275
0.163081
0.216036
0.190152
0.171903
0.150196
0.149322
0.154352
0.194056
0.173028
0.164456
0.0922955
0.0808116
0.154997
0.148056
0.000343353
0.147788
0.145001
0.000284873
0.000263493
0.160462
0.143067
0.140949
0.158904
0.138307
0.138645
0.1407
0.138596
0.138474
0.190417
0.144886
0.139415
0.170672
0.143266
0.141856
0.154953
0.000523455
0.000517873
0.152237
0.150799
0.176749
0.163707
0.141021
0.138931
0.140604
0.216567
0.146695
0.139995
0.142435
0.145683
0.133793
0.141658
0.143009
0.146131
0.145608
0.142506
0.146268
0.152947
0.235796
0.197384
0.197862
0.16232
0.139681
0.146001
0.151421
0.14934
0.161404
0.139064
0.139973
0.14001
0.137773
0.130067
0.144479
0.146522
0.135253
0.170894
0.159436
0.196019
0.198703
0.00669962
0.0420836
0.102008
0.107598
0.0378867
0.0357826
0.0621267
0.131696
0.0455325
0.0824053
0.126993
0.0811239
0.0411512
0.103825
0.0514348
0.0452793
0.000509733
0.0443889
0.0473498
0.0411833
0.0412655
0.0454491
0.0574471
0.0626832
0.056358
0.0596629
0.115505
0.111967
0.000341696
0.0427767
0.0405282
0.0985124
0.0766684
0.108489
0.0803336
0.0247913
0.000800974
0.104047
0.0672708
0.0642937
0.126603
0.126457
0.121926
0.121643
0.0706616
0.125176
0.125335
0.0522764
0.0558314
0.0848804
0.0887712
0.0901304
0.0601688
0.0639185
0.0492502
0.0495288
0.0332653
0.0890529
0.0906953
0.100348
0.0315123
0.117342
0.0298272
0.0918385
0.0896051
0.0456104
0.127689
0.0285723
0.00402444
0.0513102
0.0523916
0.0283694
0.0311137
0.0253939
0.0455949
0.0462211
0.0680388
0.114196
0.112032
0.0618152
0.0604751
0.0406769
0.0458151
0.110563
0.108514
0.111226
0.138264
0.0491945
0.0492591
0.135978
0.136442
0.0431759
0.0416454
0.056162
0.0442152
0.111365
0.112805
0.112971
0.111338
0.0412432
0.0217635
0.044168
0.048017
0.0461942
0.0459238
0.116318
0.11641
0.0577936
0.0909193
0.128235
0.124262
0.0621875
0.0606216
0.0684606
0.105777
0.0529245
0.0532933
0.108325
0.000324437
0.0617642
0.027925
0.0624452
0.0453027
0.0441507
0.0887208
0.0896036
0.0873021
0.132219
0.0605709
0.0561328
0.0596893
0.056382
0.13951
0.131262
0.0628041
0.0705642
0.0687583
0.0629604
0.0726953
0.0396253
0.0396436
0.120547
0.13126
0.110558
0.110476
0.118942
0.11357
0.115137
0.112324
0.0662843
0.0658201
0.0383093
0.063806
0.0637667
0.053857
0.052791
0.0551575
0.0511867
0.138031
0.0593358
0.060983
0.0622051
0.126748
0.122655
0.130412
0.0476967
0.0506037
0.0476556
0.0501869
0.0896832
0.0821693
0.0854182
0.0870848
0.136765
0.0190859
0.0244054
0.0415566
0.0377534
0.0456608
0.0452967
0.0427568
0.0816735
0.069848
0.0864389
0.0828652
0.0810816
0.0886615
0.0637737
0.0638606
0.0526082
0.0522016
0.0558076
0.0494691
0.0403894
0.0554372
0.0478305
0.0394285
0.0430989
0.0690932
0.0768755
0.0709952
0.073863
0.0522577
0.0488573
0.139366
0.140138
0.13805
0.136748
0.140527
0.0519694
0.0552053
0.0492026
0.079576
0.0900997
0.084516
0.0494627
0.0516281
0.0535102
0.0483082
0.0656691
0.0640368
0.0654826
0.0635411
0.0448133
0.0446726
0.0426949
0.0777784
0.150954
0.144031
0.147583
0.148119
0.0660739
0.113542
0.105046
0.104018
0.107368
0.048667
0.0448743
0.0523592
0.0793258
0.0610954
0.0673372
0.064652
0.0634181
0.138146
0.0434149
0.0408602
0.0406187
0.0433122
0.165932
0.00025533
0.137312
0.193951
0.000524899
0.138565
0.167977
0.13951
0.139487
0.139526
0.170228
0.118455
0.138
0.13876
0.107384
0.13463
0.132875
0.138417
0.136586
0.121689
0.138462
0.138101
0.116284
0.138657
0.138415
0.00359586
0.139137
0.142246
0.00020878
0.138396
0.138776
0.140452
0.115196
0.140069
0.120816
0.1217
0.135131
0.139308
0.132048
0.134292
0.127111
0.152352
0.128667
0.124264
0.133727
0.129399
0.138825
0.130522
0.127509
0.121663
0.0986452
0.0975226
0.000213318
0.00540587
0.157479
0.166303
0.138517
0.103301
0.106492
0.139272
0.134011
0.139798
0.139585
0.138301
0.0615308
0.0657975
0.0666231
0.123598
0.139187
0.223959
0.126365
0.104387
0.099315
0.100144
0.138672
0.00910971
0.131263
0.132664
0.100595
0.106547
0.0390042
0.148878
0.140512
0.235263
0.203152
0.138309
0.13853
0.13845
0.0955921
0.158311
0.146442
0.128339
0.126521
0.145539
0.11873
0.120461
0.108324
0.139816
0.127155
0.13724
0.133786
0.158796
0.147753
0.0748493
0.0693854
0.118385
0.119841
0.143303
0.140198
0.000749262
0.149706
0.181871
0.142204
0.14033
0.13997
0.139292
0.139822
0.126725
0.134395
0.139162
0.0558433
0.05571
0.0594932
0.139055
0.138142
0.138353
0.137943
0.139769
0.143415
0.147683
0.11259
0.0375976
0.139455
0.138087
0.145566
0.153661
0.0498011
0.045175
0.121926
0.118859
0.161212
0.218814
0.159277
0.177541
0.0602381
0.0589996
0.110506
0.114316
0.117685
0.0851192
0.0913065
0.137777
0.137599
0.137326
0.170696
0.141025
0.138776
0.13868
0.133917
0.135715
0.139125
0.138597
0.132572
0.133013
0.130929
0.139736
0.136986
0.145781
0.149375
0.000448389
0.00427283
0.117361
0.113395
0.122343
0.0635778
0.0593106
0.168007
0.170263
0.158079
0.00579325
0.0068088
0.0772465
0.0348899
0.135618
0.0367351
0.0718233
0.0326577
0.0377989
0.0621985
0.0711007
0.0707031
0.0735976
0.0864302
0.0861861
0.0940113
0.0948941
0.0740899
0.0417742
0.0628073
0.0338154
0.0521105
0.0779554
0.0776175
0.0612801
0.0611222
0.063336
0.029403
0.00319304
0.0306937
0.003598
0.002348
0.0704623
0.0523082
0.0525353
0.0651512
0.0244965
0.0522048
0.0248343
0.0584656
0.0274055
0.0744933
0.047282
0.0463673
0.062468
0.039431
0.0488228
0.0162089
0.0195725
0.0624734
0.0287139
0.0616968
0.0635957
0.0928031
0.105725
0.0399071
0.0554871
0.0964929
0.0468377
0.0674883
0.0675861
0.0719706
0.0722235
0.0523579
0.0521742
0.0250982
0.0874884
0.0865678
0.015219
0.0715184
0.0219014
0.00160497
0.0651234
0.0760615
0.0445203
0.00158693
0.0013695
0.0749302
0.0727075
0.015616
0.0042587
0.0910477
0.0917463
0.0558842
0.0416646
0.0422468
0.0899512
0.0773799
0.0477932
0.0385021
0.0402573
0.0526779
0.0748259
0.0747193
0.0272455
0.0243315
0.0313659
0.0310339
0.0570458
0.0599023
0.0471739
0.0500941
0.0362368
0.0583081
0.00729547
0.0541053
0.0571128
0.060003
0.0650657
0.0419569
0.0665925
0.0403891
0.0432815
0.0701287
0.0487178
0.046984
0.0727986
0.0484228
0.0724346
0.0765166
0.0416079
0.0364697
0.0348477
0.0588489
0.0596873
0.0799131
0.00951394
0.0368549
0.00143874
0.0259486
0.0883627
0.104988
0.0498111
0.0475399
0.0718225
0.0435736
0.0369231
0.0693578
0.00970059
0.0497982
0.0600052
0.0662792
0.11841
0.118326
0.0355588
0.0360783
0.0782979
0.0533714
0.0840479
0.0598059
0.0565137
0.0768101
0.061337
0.0175179
0.0375408
0.031075
0.0435522
0.0587585
0.0623699
0.0647691
0.0658555
0.0156706
0.0180674
0.0661603
0.0303215
0.0308534
0.0657374
0.0624947
0.0736727
0.060872
0.0597957
0.0861402
0.0524651
0.0557856
0.034823
0.0769553
0.0769672
0.0767381
0.0557945
0.0536269
0.0543661
0.050649
0.105198
0.0582564
0.0586388
0.0338142
0.0325118
0.0319149
0.0625075
0.073858
0.0730421
0.0752022
0.0792812
0.0565066
0.0581892
0.0678023
0.0510526
0.0883556
0.0566203
0.0336502
0.0323625
0.0729577
0.0569906
0.0372197
0.127174
0.0425713
0.0409765
0.0327013
0.0368564
0.0262129
0.0622086
0.0591753
0.0195881
0.0847213
0.0298832
0.0854085
0.083835
0.0689281
0.0654607
0.0456049
0.0466854
0.0336816
0.0860676
0.0869743
0.0838256
0.0830104
0.0844767
0.0510005
0.0660154
0.0107038
0.0691995
0.0834782
0.0846438
0.0152929
0.0145785
0.0659299
0.0473185
0.075454
0.0836544
0.0719674
0.0749955
0.0358408
0.0926141
0.0797237
0.014335
0.0517824
0.0693051
0.095528
0.0950125
0.0948061
0.0729673
0.0585939
0.0198916
0.0638186
0.0663842
0.0447614
0.0575956
0.0521547
0.0379645
0.0277698
0.0758226
0.042146
0.0324162
0.0201107
0.0213411
0.00546025
0.0539739
0.0536625
0.0567228
0.0243104
0.0571531
0.0567838
0.0751917
0.0500942
0.0385539
0.0369176
0.0701921
0.0501486
0.0664984
0.0430099
0.0608016
0.126108
0.0705888
0.0818545
0.0753574
0.0673989
0.0678892
0.0692487
0.075265
0.0201793
0.105682
0.100809
0.0153091
0.100455
0.0254492
0.0672125
0.0634768
0.0644837
0.0724277
0.0549079
0.0533323
0.0444394
0.0038296
0.0443518
0.0341713
0.0143316
0.0105812
0.0780579
0.0721933
0.0474254
0.0485447
0.0471077
0.0455579
0.0740868
0.0719492
0.0684321
0.0677134
0.0556744
0.0538761
0.0394536
0.0408779
0.0388544
0.0503662
0.0489186
0.03609
0.0661121
0.0667067
0.0581029
0.0612748
0.0393131
0.039282
0.00579919
0.00437886
0.045917
0.0349502
0.0309549
0.115612
0.109744
0.0376603
0.0353403
0.0358854
0.0330966
0.030123
0.0465954
0.0560568
0.0613986
0.0653466
0.0310933
0.0961781
0.0920145
0.101816
0.101218
0.100068
0.0754539
0.105946
0.103281
0.0775567
0.0518426
0.0236004
0.0251142
0.0196801
0.077746
0.0562313
0.0525926
0.0582513
0.0415944
0.0762119
0.0766537
0.0763264
0.0481347
0.0513203
0.0520628
0.052535
0.0508854
0.06097
0.0608186
0.061636
0.0545773
0.0558831
0.0598912
0.0617846
0.0378382
0.0362729
0.0733344
0.0729043
0.0728582
0.0732868
0.0537056
0.0548942
0.0532343
0.0888539
0.0531483
0.0713801
0.0523781
0.0365798
0.0011005
0.070719
0.0356478
0.0349276
0.102003
0.100719
0.102448
0.068036
0.0671199
0.0678258
0.0412981
0.0771776
0.0751049
0.0784131
0.0818666
0.0815319
0.0803532
0.0802541
0.0516201
0.0529577
0.0734478
0.0119374
0.07039
0.0245978
0.0916773
0.0576044
0.0405366
0.122203
0.0171611
0.0592123
0.0597017
0.0525916
0.0447626
0.0431887
0.0459611
0.0867342
0.106395
0.103386
0.0890976
0.08531
0.060379
0.0613228
0.0577465
0.0472155
0.0752846
0.0750745
0.0373224
0.0387144
0.0824212
0.0353344
0.0331967
0.033886
0.0562141
0.0546478
0.054717
0.00862655
0.0165489
0.000641423
0.0735968
0.0714302
0.101853
0.0794563
0.000779567
0.0469799
0.0454255
0.0894722
0.0488768
0.0509095
0.0503789
0.0493105
0.064488
0.0658813
0.0646643
0.0660919
0.0402288
0.0384189
0.0616833
0.0112414
0.0420106
0.043257
0.000570822
0.0743326
0.0739071
0.0753357
0.0680595
0.031471
0.029802
0.0321455
0.00778201
0.0238238
0.0221066
0.0645277
0.0637646
0.0778061
0.0939132
0.0937357
0.0931471
0.100655
0.0993206
0.0996535
0.0412043
0.0768596
0.0751851
0.0886169
0.0870717
0.0878217
0.000530922
0.03342
0.0589103
0.0660484
0.103815
0.102025
0.102529
0.103358
0.0701028
0.0701548
0.0296361
0.0261812
0.108584
0.000952491
0.07432
0.0733433
0.0696719
0.0702918
0.0684506
0.00100339
0.0936481
0.0887355
0.000456641
0.000779316
0.00175127
0.0768686
0.0768133
0.0766201
0.0516403
0.0358467
0.0384899
0.0962773
0.0725397
0.0533779
0.0536799
0.0525855
0.0632128
0.0628292
0.0392654
0.000667583
0.0995194
0.0679142
0.0683319
0.0654329
0.0378274
0.03723
0.091849
0.0924847
0.0916803
0.0934725
0.0932317
0.0957469
0.0591847
0.000493097
0.0559954
0.0311774
0.106916
0.104121
0.0209368
0.0193227
0.0419481
0.042232
0.0692632
0.0627875
0.0630677
0.061852
0.0628579
0.0640192
0.034957
0.0304942
0.0578016
0.000672495
0.000400836
0.0749751
0.0408472
0.0397152
0.0145094
0.0148585
0.0564173
0.0335968
0.0321636
0.0405426
0.106164
0.102437
0.0684294
0.0668579
0.0220539
0.0727285
0.0371136
0.0779324
0.077802
0.0661634
0.0648317
0.0401301
0.0368932
0.000446486
0.000762278
0.0600928
0.0715821
0.0714191
0.000358922
0.0736408
0.0745628
0.0698336
0.0549278
0.0508623
0.0527297
0.0720346
0.0910588
0.0947575
0.0955659
0.0964593
0.0964072
0.0347487
0.0242786
0.0930988
0.0944299
0.094883
0.0925468
0.0797788
0.0777989
0.101695
0.0784952
0.063923
0.062574
0.0752883
0.0948435
0.0963082
0.00119819
0.00262418
0.0671296
0.0688499
0.0688561
0.0667625
0.0462815
0.071762
0.0691257
0.0695788
0.0623539
0.0529123
0.0534244
0.0407873
0.0376983
0.0397217
0.0384334
0.0738351
0.0713127
0.0704318
0.0716371
0.0540101
0.0552708
0.054141
0.0550534
0.040742
0.0422222
0.0430223
0.040131
0.0375654
0.0413619
0.0370898
0.000676453
0.00112805
0.0417401
0.0422129
0.0571984
0.0554978
0.0562595
0.0564654
0.0265028
0.0307455
0.112654
0.114709
0.10789
0.0385662
0.0901798
0.0924906
0.0688145
0.0685299
0.0693847
0.0684367
0.0760482
0.0709694
0.0752025
0.0742992
0.0850749
0.0860628
0.0487606
0.0473443
0.0473073
0.0487126
0.09109
0.0916052
0.0908511
0.0917719
0.0145449
0.0202253
0.0877363
0.0896711
0.0894644
0.0877846
0.0880545
0.0670088
0.0671178
0.0693382
0.00131406
0.0260093
0.024603
0.0295586
0.0536542
0.054101
0.0518699
0.0500754
0.092309
0.0394863
0.0407405
0.0626812
0.0656823
0.0621513
0.0494818
0.0510451
0.0509086
0.042629
0.0685088
0.0690627
0.0680281
0.0696874
0.0481753
0.046395
0.0489638
0.0490248
0.0502226
0.0494204
0.0567448
0.0578937
0.058093
0.0564229
0.0713505
0.0707968
0.0716805
0.110825
0.108002
0.109205
0.0746054
0.0907145
0.0907673
0.0911827
0.0903325
0.0660552
0.0657637
0.0646255
0.0671915
0.0345607
0.0384979
0.040018
0.0505421
0.0520502
0.0510415
0.00458294
0.00467036
0.0627563
0.0384751
0.0155464
0.0189548
0.043028
0.0417388
0.0444618
0.0568828
0.0617983
0.0603118
0.044825
0.046357
0.137076
0.13731
0.022113
0.0643348
0.0617735
0.0641659
0.0619836
0.0588285
0.0236016
0.046848
0.0462628
0.0166092
0.0215494
0.0746789
0.0696162
0.0688299
0.0692803
0.0692009
0.00781825
0.00761724
0.0670307
0.0640753
0.0666539
0.0635895
0.0224851
0.0724837
0.0981301
0.00751546
0.0641379
0.0625455
0.096345
0.0983329
0.0968783
0.0502484
0.045836
0.0515378
0.0674039
0.0663992
0.08361
0.080271
0.0815674
0.10338
0.104971
0.104558
0.103711
0.067022
0.0682719
0.0677438
0.0146813
0.0142092
0.0529824
0.0519691
0.0517593
0.0948686
0.0985708
0.0715835
0.0720091
0.0724547
0.0711083
0.0598649
0.0548307
0.0566849
0.0576787
0.0320405
0.0412053
0.0401997
0.0627206
0.0609539
0.0617734
0.0619735
0.0446998
0.0440079
0.0450703
0.0435705
0.0757636
0.0761209
0.0761207
0.0560295
0.0556929
0.0573773
0.0582844
0.0585501
0.059006
0.0578413
0.0268107
0.023457
0.0229846
0.027983
0.0367524
0.0485041
0.0438153
0.0440437
0.0611988
0.0622143
0.061653
0.0510526
0.0491842
0.0409615
0.0392582
0.0399947
0.0401936
0.0091482
0.00683608
0.0823241
0.0796478
0.0806437
0.0812246
0.0846713
0.0862535
0.0822933
0.103772
0.11894
0.0869382
0.0890839
0.0543241
0.0531781
0.0534228
0.11126
0.107791
0.136481
0.0759756
0.0760497
0.0736278
0.0569694
0.0551209
0.0564248
0.0430137
0.0423993
0.0433945
0.041913
0.0932797
0.0934407
0.0923176
0.0551965
0.0568511
0.0578607
0.0402846
0.039274
0.0307471
0.0334207
0.0333188
0.0459957
0.0480391
0.0472825
0.0467227
0.0432799
0.0411401
0.0426176
0.0922696
0.0931754
0.0936583
0.0919149
0.0290221
0.0511524
0.0442597
0.043932
0.0429381
0.0742902
0.074086
0.0745298
0.0740204
0.0454384
0.0464601
0.0467359
0.0452772
0.0501093
0.0495253
0.0518849
0.0114724
0.0101227
0.0117979
0.0637986
0.0703804
0.0684249
0.0694258
0.0666024
0.111859
0.1117
0.0744824
0.038905
0.0746571
0.0586594
0.0533156
0.0565511
0.0556113
0.05437
0.074553
0.0743093
0.0853526
0.0875611
0.0840666
0.0483653
0.0493491
0.0497278
0.0907683
0.0900259
0.0900948
0.0906377
0.0424279
0.0418834
0.0435879
0.0406403
0.0219423
0.0175278
0.0196927
0.0895883
0.088602
0.0892478
0.0747488
0.0736466
0.0919671
0.0919073
0.0349725
0.0306222
0.0315509
0.0319133
0.0306492
0.0314467
0.0857753
0.0587153
0.0602825
0.0597177
0.0592813
0.0533305
0.0584054
0.0784949
0.0781633
0.0786556
0.0684823
0.07158
0.0721317
0.0712639
0.0760641
0.0767739
0.075182
0.0397168
0.0408451
0.0397741
0.0406787
0.0442356
0.0452244
0.0598638
0.0623773
0.0627499
0.0718052
0.0717367
0.0704406
0.0857815
0.0854148
0.0850136
0.0464325
0.0488813
0.0500448
0.0457688
0.00706823
0.00843411
0.0534014
0.0345883
0.0325633
0.0327688
0.0899188
0.0893432
0.0923516
0.00086954
0.00839721
0.0561242
0.0568
0.0571218
0.0756963
0.0757602
0.0568183
0.0141661
0.0808695
0.0805927
0.0817148
0.0796772
0.117713
0.117177
0.119198
0.0461733
0.0441823
0.0453388
0.0685678
0.0691735
0.0891437
0.0868663
0.0874737
0.0886457
0.0540344
0.0530715
0.0548604
0.0937438
0.0934317
0.0944583
0.0928101
0.030075
0.0300546
0.0430608
0.0390824
0.057502
0.0595602
0.0575806
0.0579578
0.0590593
0.0220015
0.0171406
0.0661251
0.0636119
0.0656926
0.063574
0.0580668
0.0750293
0.075423
0.0870057
0.100857
0.100649
0.10011
0.101546
0.0449805
0.044596
0.0458001
0.0108869
0.0113844
0.0695124
0.0709564
0.0685011
0.0544914
0.0554732
0.0542163
0.0556411
0.0728455
0.0721643
0.0881844
0.097268
0.092803
0.0996604
0.0990975
0.0984939
0.0481017
0.0504793
0.0494895
0.0490645
0.0526306
0.0525008
0.0649395
0.0481837
0.0469712
0.0479248
0.0473152
0.12122
0.119822
0.0364121
0.0354412
0.0560873
0.0570018
0.0573121
0.0557171
0.0744068
0.0731548
0.0740445
0.0735043
0.119545
0.0898594
0.0894075
0.0588023
0.0621043
0.061342
0.0589523
0.0490513
0.0514586
0.0736569
0.107858
0.106409
0.109033
0.0627751
0.0611508
0.0618231
0.0621057
0.0347727
0.0415497
0.0383047
0.0237525
0.0210746
0.0650322
0.0673085
0.0671994
0.0658915
0.0169422
0.0039545
0.0907237
0.0911798
0.0249627
0.0914298
0.0903613
0.0405526
0.0978886
0.100379
0.076558
0.0794877
0.0488883
0.0447847
0.0813217
0.0703105
0.0693652
0.0707399
0.0731986
0.0464088
0.0442811
0.0455961
0.0485859
0.0473913
0.0484587
0.0474069
0.123158
0.124381
0.0370944
0.0367996
0.0371463
0.0378146
0.0360638
0.0367909
0.0381956
0.0363511
0.0387266
0.138719
0.0922794
0.0905894
0.0923276
0.0903296
0.0524681
0.046221
0.0397195
0.0435626
0.0428788
0.0496428
0.049473
0.0522095
0.0470566
0.137968
0.138154
0.0624557
0.0637711
0.0639072
0.0141013
0.01235
0.0321397
0.0539429
0.0526923
0.0526253
0.0539135
0.0647817
0.0659488
0.0111278
0.0422462
0.0355953
0.031898
0.0350912
0.0315796
0.0467669
0.045157
0.0481952
0.000370492
0.0721614
0.0730785
0.071281
0.108446
0.098649
0.0710347
0.0499535
0.0585436
0.0599212
0.05823
0.0953239
0.0960201
0.0503097
0.0519903
0.0506443
0.0587498
0.0586771
0.0601579
0.0573273
0.0643904
0.0655635
0.0636797
0.120484
0.115129
0.113476
0.113776
0.114895
0.0485921
0.0469591
0.0495593
0.0462988
0.000130835
0.051753
0.0533416
0.0530669
0.0678776
0.0661749
0.070726
0.033284
0.0061039
0.0960257
0.065766
0.066768
0.0645996
0.0647288
0.0322717
0.0335985
0.0316351
0.103841
0.104736
0.103212
0.105292
0.108903
0.0609304
0.0621457
0.0620677
0.0609524
0.0842477
0.0832657
0.0599796
0.0591283
0.0972116
0.0961383
0.0967184
0.0964872
0.027657
0.0299778
0.0283674
0.0342821
0.0345716
0.0336355
0.0351839
0.0677512
0.0658439
0.0657115
0.0673427
0.0230904
0.06956
0.0672451
0.0681211
0.0105458
0.0468051
0.0434679
0.0456094
0.0443711
0.0420002
0.0456254
0.042046
0.092095
0.0915572
0.0919884
0.080336
0.0803366
0.0464649
0.0477471
0.043492
0.0502944
0.0672903
0.0666201
0.0676074
0.0662494
0.0606003
0.0596076
0.0601237
0.0600876
0.0894542
0.0890222
0.0896634
0.0887775
0.00379315
0.00380984
0.00405903
0.0125278
0.0518518
0.0494291
0.0432845
0.0418407
0.0423723
0.042774
0.0398279
0.108858
0.108414
0.107699
0.109731
0.0733394
0.135749
0.134754
0.13503
0.13521
0.0699794
0.0716556
0.0701681
0.0129921
0.0329971
0.0351306
0.0705051
0.0709662
0.0700919
0.0898646
0.089711
0.0896395
0.000184732
0.0555045
0.0521216
0.0538298
0.0769057
0.0739868
0.0746647
0.0736894
0.0418857
0.0425832
0.0428263
0.0758402
0.0590501
0.0601759
0.0588656
0.0602564
0.000474396
0.0597988
0.0554134
0.0587812
0.0545706
0.0708415
0.0678171
0.0724266
0.0499345
0.051263
0.0631132
0.0608404
0.0395442
0.065497
0.0645706
0.0644881
0.0655573
0.116499
0.0630851
0.0644263
0.000675072
0.121409
0.121096
0.0876998
0.0874891
0.0869896
0.0881947
0.0575827
0.0525919
0.0564463
0.0544494
0.0407402
0.0428269
0.133264
0.0580776
0.060172
0.0589183
0.0592636
0.0473159
0.0478425
0.0436925
0.045039
0.0408597
0.0365228
0.0395592
0.0410254
0.0401309
0.0405117
0.00112773
0.0426206
0.042517
0.0406369
0.0445326
0.0769753
0.0777245
0.0769904
0.0229573
0.0198964
0.0519379
0.0517757
0.0716008
0.049619
0.0505448
0.137156
0.0745579
0.0870555
0.0863182
0.0874126
0.0858471
0.13306
0.138179
0.024899
0.0103099
0.0100747
0.0195344
0.0333592
0.00593596
0.011338
0.0116234
0.0146393
0.0763454
0.0412179
0.138597
0.00963905
0.00988033
0.0059109
0.00527589
0.138586
0.138425
0.138448
0.138262
0.00912456
0.0625428
0.0617737
0.122286
0.117825
0.127595
0.125497
0.0843331
0.0874022
0.0141054
0.00809111
0.000340829
0.0677679
0.00100926
0.0189929
0.000611202
0.0079482
0.0098026
0.130782
0.0809854
0.0311012
0.0239954
0.0251054
0.000400703
0.139166
0.00516272
0.00507245
0.00597576
0.0748094
0.00486793
0.149184
0.144577
0.00743312
0.137979
0.000176958
0.0256702
0.0241088
0.0118108
0.014474
0.0153091
0.120768
0.0727878
0.0224347
0.137257
0.137369
0.033671
0.0249033
0.0227723
0.0673499
0.0924771
0.135752
0.136363
0.0235771
0.0224651
0.129547
0.0083884
0.00171085
0.000331917
0.120321
0.118607
0.00109944
0.00552462
0.02218
0.000946777
0.000400787
0.00426902
0.121434
0.114828
0.118142
0.117865
0.00306796
0.0364172
0.00665111
0.000236891
0.0229194
0.114165
0.11795
0.0281396
0.00663715
0.00357154
0.00327742
0.130489
0.0410713
0.13204
0.129564
0.130909
0.167927
0.0151951
0.0815055
0.00434577
0.00539582
0.00100157
0.112735
0.00675676
0.0359483
0.0125013
0.0281457
0.0263276
0.0262781
0.0344971
0.0208306
0.0216472
0.0219742
0.0177588
0.0247084
0.0282973
0.00884421
0.00908626
0.00198371
0.00350573
0.0217985
0.0188868
0.0165027
0.00451824
0.00520033
0.0301184
0.0318197
0.0212121
0.0201455
0.0210802
0.00226604
0.00606362
0.0148778
0.000991175
0.000345751
0.000533524
0.0167552
0.000675632
0.00086821
0.000357427
0.000531981
0.00860578
0.00112779
0.0543707
0.0181081
0.0412761
0.0267553
0.00563745
0.00702244
0.0338332
0.0328962
0.0715479
0.0190878
0.110786
0.0325517
0.0772977
0.000725179
0.00632075
0.132862
0.00440981
0.0974272
0.0806866
0.133058
0.13222
0.0314781
0.011088
0.138332
0.123186
0.12423
0.0161523
0.0665828
0.0655755
0.132024
0.00437684
0.00507685
0.00340536
0.00573249
0.00626522
0.00569858
0.00979016
0.00434099
0.129826
0.0335326
0.00465978
0.00611322
0.00556249
0.00745075
0.0284994
0.0278903
0.0477105
0.110518
0.00858424
0.000182328
0.13778
0.13764
0.0232561
0.0222978
0.0297724
0.0285819
0.0198442
0.0797387
0.0239654
0.00883338
0.00141352
0.00786012
0.0419376
0.0374419
0.103278
0.0908515
0.00280901
0.00303532
0.134198
0.0421302
0.0281926
0.0300079
0.0306658
0.00658418
0.067218
0.137963
0.0166306
0.0177548
0.0154557
0.136516
0.136857
0.0268655
0.0231316
0.00710116
0.0627882
0.0645
0.0238252
0.0213531
0.00803378
0.00908331
0.135028
0.136243
0.0676327
0.150685
0.14388
0.138569
0.138397
0.0136868
0.112117
0.00762944
0.00498063
0.0601921
0.00804412
0.00653155
0.00681994
0.0145606
0.104362
0.00868492
0.00976921
0.0236915
0.00538565
0.00569203
0.128712
0.00758502
0.0332009
0.00734743
0.0605164
0.136809
0.136903
0.00197413
0.114706
0.000858209
0.0195258
0.0597383
0.0614564
0.0612113
0.0331711
0.0327242
0.0113368
0.0119297
0.0165117
0.0391885
0.0244458
0.228219
0.185029
0.000486768
0.03887
0.0389621
0.0375512
0.0375886
0.008566
0.00351455
0.0515082
0.0400484
0.0413697
0.0421574
0.0399885
0.026805
0.0111782
0.116501
0.12199
0.12517
0.138026
0.138111
0.0246304
0.034674
0.0244514
0.0278093
0.0292006
0.0992831
0.0927635
0.107212
0.0399749
0.0329016
0.0247609
0.112483
0.0262986
0.065174
0.0670673
0.0691195
0.0368315
0.0288822
0.0626457
0.0614978
0.104101
0.138415
0.111139
0.108959
0.130584
0.111099
0.0115846
0.0182517
0.0126167
0.119574
0.118082
0.128303
0.00816609
0.00943229
0.0643628
0.0389067
0.0352386
0.0234268
0.0212989
0.0480671
0.0482041
0.049568
0.0358831
0.0157847
0.0304288
0.0297626
0.0177936
0.0212177
0.13675
0.137138
0.136731
0.137132
0.014715
0.0144466
0.118246
0.0194415
0.0190073
0.0313851
0.0284461
0.028178
0.0319056
0.0347513
0.0342754
0.137815
0.136131
0.135572
0.0974908
0.0815795
0.0615169
0.136266
0.0205478
0.0180508
0.0119407
0.10231
0.27571
0.214139
0.240097
0.0577779
0.0558277
0.0870703
0.0344387
0.0336655
0.0304831
0.00145431
0.214159
0.0117161
0.0470844
0.0515271
0.0497995
0.0478234
0.00255379
0.136036
0.136595
0.0106392
0.0309471
0.117254
0.138839
0.138889
0.109205
0.108914
0.000282707
0.033431
0.0716663
0.0640262
0.0648063
0.0652632
0.000389843
0.116162
0.119611
0.114612
0.13722
0.136837
0.0360379
0.0288063
0.0306099
0.0192819
0.0279685
0.0425805
0.0430546
0.0418807
0.0945589
0.000666131
0.112722
0.109864
0.0167997
0.00206139
0.104688
0.10986
0.122103
0.11817
0.0414421
0.0408722
0.0208158
0.133381
0.0367754
0.0359643
0.0378381
0.0376447
0.196734
0.186393
0.0371531
0.036189
0.0349085
0.00820354
0.0103352
0.0119956
0.013776
0.0151035
0.0309703
0.0182234
0.0414379
0.0402321
0.0389626
0.117193
0.119985
0.00175505
0.0376743
0.0488566
0.0495252
0.0508324
0.0368927
0.041153
0.057332
0.13845
0.0126862
0.0525453
0.0585656
0.0566245
0.122605
0.122157
0.0134795
0.135135
0.0234685
0.0088196
0.0539334
0.0556282
0.0567612
0.0606585
0.0598394
0.0959598
0.101494
0.0325292
0.0309771
0.0212379
0.0223075
0.0285194
0.0255168
0.0166637
0.0133827
0.0157033
0.0328851
0.0409883
0.0202926
0.00292001
0.10674
0.0323244
0.0320024
0.0331109
0.0111109
0.0195195
0.124843
0.123726
0.083842
0.0843635
0.0835529
0.0158047
0.0517346
0.00699004
0.000938533
0.138802
0.0511968
0.025888
0.0245413
0.0264432
0.0492442
0.0357763
0.000520203
0.140524
0.0588474
0.0807975
0.0196302
0.0255261
0.0658983
0.0296266
0.028393
0.010282
0.066265
0.0352399
0.00448657
0.116679
0.108866
0.0987442
0.0995002
0.100703
0.0014776
0.00365522
0.0392237
0.0117101
0.0501714
0.0543423
0.0442245
0.0444694
0.0355547
0.0360444
0.0399993
0.018586
0.0193194
0.114759
0.111088
0.138858
0.13879
0.0928999
0.0911845
0.0059924
0.0368291
0.0347656
0.019907
0.0208477
0.0695885
0.0673936
0.00428194
0.0222277
0.0181553
0.0515272
0.0552734
0.120359
0.117738
0.096321
0.138492
0.138373
0.044496
0.0435204
0.0462366
0.0455098
0.029458
0.0264535
0.104848
0.0183548
0.0198645
0.0447288
0.0461521
0.046934
0.0463047
0.0506598
0.0492384
0.0839058
0.0834395
0.0821834
0.0747863
0.0754304
0.076425
0.0418854
0.0422144
0.126586
0.134678
0.135276
0.015803
0.00927074
0.129734
0.127335
0.0432878
0.042961
0.0445241
0.0442354
0.0683635
0.136314
0.144718
0.00191537
0.035663
0.0365361
0.0396378
0.117501
0.0362659
0.139078
0.140625
0.0785665
0.0342756
0.0357409
0.0927233
0.093985
0.0901006
0.0890115
0.0963092
0.094867
0.00843591
0.00706821
0.0666917
0.0655226
0.139251
0.139192
0.139344
0.116193
0.0396992
0.119553
0.0577825
0.0625047
0.0727042
0.0697457
0.0134517
0.0421377
0.0411018
0.106499
0.107981
0.0294438
0.121773
0.0265814
0.0170869
0.138401
0.138205
0.102958
0.0728417
0.0700466
0.0707828
0.071796
0.0149922
0.0167172
0.115155
0.0346078
0.0359956
0.0463006
0.15465
0.166192
0.0465027
0.137913
0.137585
0.0269845
0.0280598
0.138505
0.0650665
0.0672155
0.0661335
0.0359765
0.0366125
0.0611594
0.0651173
0.041806
0.0404846
0.134531
0.00353291
0.0487436
0.0491864
0.0476737
0.046938
0.0344011
0.114279
0.109759
0.105702
0.0739158
0.0705982
0.0725699
0.121693
0.117126
0.11244
0.0693096
0.0705225
0.0699738
0.133376
0.134643
0.134148
0.089133
0.0775571
0.0488941
0.0498903
0.0135585
0.0122523
0.0139565
0.116334
0.1025
0.108812
0.113892
0.0502637
0.138801
0.1307
0.128645
0.0184705
0.0209243
0.0642453
0.0662831
0.0918824
0.0909847
0.0900527
0.12189
0.124275
0.117953
0.0787899
0.0857895
0.0866868
0.12395
0.124789
0.125824
0.047351
0.0453172
0.13688
0.137223
0.137406
0.0623488
0.0597084
0.0585978
0.129071
0.130099
0.0712356
0.0718337
0.00568813
0.064833
0.0644474
0.0435484
0.0435853
0.0181634
0.019474
0.0418398
0.0435929
0.0435171
0.0712617
0.202118
0.256457
0.0325867
0.00317947
0.0681424
0.000785898
0.087454
0.0883979
0.0387475
0.0134977
0.133075
0.138061
0.138139
0.122831
0.123854
0.0378418
0.0368365
0.138532
0.076466
0.0761219
0.00497457
0.13633
0.13728
0.13767
0.0631479
0.0624134
0.131931
0.107333
0.105292
0.12691
0.123095
0.131339
0.131479
0.0382363
0.0386336
0.0854755
0.0874632
0.010905
0.0966987
0.101494
0.180975
0.153213
0.0978038
0.0977928
0.118075
0.111681
0.073614
0.0736498
0.154947
0.141709
0.141776
0.0340377
0.0331456
0.0337475
0.0476631
0.0475271
0.0146824
0.134943
0.140734
0.127491
0.0664832
0.0639116
0.0770384
0.0767851
0.119262
0.11957
0.121001
0.0332536
0.0357767
0.0794085
0.0802706
0.104487
0.106046
0.0348173
0.0383116
0.0698262
0.0688532
0.0248932
0.0256316
0.0274257
0.107782
0.112223
0.106848
0.0261351
0.0634274
0.0620994
0.0624638
0.0386991
0.03895
0.0377072
0.0433462
0.0451606
0.1513
0.037753
0.0412008
0.0515297
0.0518993
0.074245
0.0743595
0.0752973
0.0798862
0.0775217
0.0754338
0.0524141
0.0509404
0.0408073
0.0419781
0.0385391
0.040075
0.0407843
0.0560268
0.059407
0.0131042
0.0271016
0.0284236
0.0257926
0.0233282
0.025858
0.000727367
0.137322
0.136471
0.135677
0.138235
0.138519