/*--------------------------------*- C++ -*----------------------------------*\
  =========                 |
  \\      /  F ield         | OpenFOAM: The Open Source CFD Toolbox
   \\    /   O peration     | Website:  https://openfoam.org
    \\  /    A nd           | Version:  6
     \\/     M anipulation  |
\*---------------------------------------------------------------------------*/
FoamFile
{
    version     2.0;
    format      ascii;
    class       volScalarField;
    location    "1200";
    object      p;
}
// * * * * * * * * * * * * * * * * * * * * * * * * * * * * * * * * * * * * * //

dimensions      [0 2 -2 0 0 0 0];

internalField   nonuniform List<scalar> 
29874
(
2.93867
0.168302
0.161528
-2.93957
0.180706
-4.54734
-1.16702
0.720598
2.5553
0.566071
-2.41779
-0.0430677
-2.02098
-0.281863
-2.17221
-4.36658
-2.96008
-3.27764
0.376107
-0.0116255
3.21856
-1.81977
1.19598
0.887257
3.80459
-0.707001
-2.10881
0.205203
0.442649
-2.68234
-2.51984
-3.62002
-0.59886
0.95892
2.81466
1.37959
2.80591
-1.77316
1.37507
-1.11249
0.983561
1.15451
1.40608
3.19904
-2.43409
1.69998
0.975978
-0.842441
-2.94383
4.17993
-0.353741
-2.47226
-4.11088
2.58526
-0.311734
-0.798878
-0.670084
0.85095
1.78853
-2.24468
-0.713114
2.15565
1.49382
6.13222
0.263096
0.945367
0.290796
1.11245
0.610343
0.54238
-2.0125
-1.53031
7.58787
0.504219
1.25653
-2.6437
-0.936964
-2.38174
4.51512
2.54275
-3.3037
-0.290986
0.997136
-1.54305
14.406
12.2087
0.473196
0.275674
-1.77424
-0.989547
18.1036
1.15057
1.21426
-0.609304
0.137347
2.91511
0.513224
14.2308
19.5029
-0.286527
-0.315158
0.495457
0.933757
4.61689
6.32731
19.341
17.4921
0.163779
0.674395
0.322867
17.7806
-1.60679
-1.75799
1.09764
1.0041
1.00331
1.957
1.59221
24.2521
1.65763
1.33583
-3.41386
-0.0629862
-0.133874
-0.134441
3.30277
-1.23274
1.2789
1.64224
3.7934
0.716469
2.93539
2.51113
1.13172
0.749052
1.52571
1.01298
-0.183795
-1.64876
3.47737
0.976075
1.51268
-0.592166
5.56392
0.910024
2.87146
-1.25812
2.06517
0.570553
1.83803
-2.14076
-0.833153
-3.31616
-0.229755
-0.61209
1.13742
3.75867
-2.15569
-1.77079
-1.91673
-1.47577
4.33801
7.14544
0.838711
0.631932
0.945827
0.526342
3.3058
3.85859
1.00755
0.758149
0.614487
0.831979
15.6404
16.9194
0.758767
0.502162
23.3913
3.78705
3.87078
23.198
23.1985
-1.45473
3.27997
4.12022
-4.46578
0.427417
0.494566
-0.183377
0.91589
0.929694
-4.77008
3.3455
3.47064
3.22389
1.7502
1.43663
-0.453486
23.0476
23.1528
-1.5629
-5.46774
3.28294
2.78314
2.19987
2.70634
2.21388
-6.15358
2.09744
2.21025
2.04048
0.490538
5.00177
3.33904
-1.38268
1.39469
0.641299
0.464172
0.484203
0.697394
-0.901925
-4.56613
-0.383305
2.14077
0.792719
0.504226
-0.345555
-0.161225
-0.5866
0.775846
0.805797
0.750306
-0.00586284
-0.53828
3.30424
3.43369
4.30857
-0.606044
0.376053
-0.622976
-1.81796
22.1824
21.5208
3.86833
2.91005
20.9476
21.2032
-9.7948
2.57818
-7.13867
15.9598
2.04175
-8.5154
18.2164
0.196517
20.5719
17.109
23.159
-7.50324
17.2061
-3.70199
18.2613
16.9246
-3.70992
-4.83209
-6.65939
-6.95501
3.2255
3.37194
24.5916
20.4242
20.8004
-5.86177
-7.25198
-0.225827
2.9127
-6.04906
21.8608
4.10096
-0.573238
-1.61667
0.182489
0.661342
2.28979
2.02624
3.16199
1.17993
0.782341
20.324
20.0829
4.22307
2.85878
2.98211
-8.06449
-8.21131
17.0643
17.0628
-4.76751
-7.72056
-7.64203
-7.19159
17.8665
3.22612
19.0313
3.09168
3.18967
20.142
2.11761
-4.90343
22.6957
-9.23489
-9.14342
-5.25896
-5.73663
-5.49503
17.5318
17.5262
-4.50253
3.5853
3.66281
-5.6327
-10.902
20.0753
21.2961
3.9569
3.98718
4.27696
-0.595539
17.2538
17.0486
3.40009
2.79867
17.2942
17.2006
-9.05444
-5.5305
2.98882
2.52025
2.53363
2.46876
20.9721
-5.16783
21.3526
21.0186
21.1164
21.2142
2.20418
2.54435
-9.9664
2.96943
2.01435
-3.06992
-8.8195
-8.17448
-8.14799
0.407231
20.6092
20.2509
8.38027
24.6103
-3.67798
20.7885
-6.0348
21.1929
21.2505
2.85981
2.93303
2.63905
5.99094
20.025
20.3047
19.408
19.9777
0.850893
0.648222
19.6062
18.4409
18.2715
18.6643
17.9443
21.1359
21.5291
3.30902
3.11564
3.31304
3.12788
-2.33603
2.28214
2.17419
1.96648
-6.8239
-7.96821
21.9084
-5.47479
-4.84749
-9.85183
-9.32808
-9.97363
-10.0881
2.80629
-6.15036
-6.66309
-6.07391
4.47816
4.45475
3.97452
21.2035
20.8958
20.7773
20.7013
15.5254
16.7892
16.0001
15.6497
1.70118
17.5736
17.2704
19.0089
19.5364
20.9732
21.2164
21.4951
16.6405
17.7062
15.6654
16.6557
17.638
16.2049
-1.19144
-0.667807
-4.98126
-5.70557
-5.75575
-5.30766
17.4169
-3.82715
-3.6318
16.5288
16.9546
18.8662
18.1321
18.0028
17.597
19.5839
19.6284
1.605
4.2209
4.29218
4.55655
3.53839
19.829
19.6368
20.5597
15.0751
14.5171
15.0751
-6.37121
-5.90631
-6.35488
-5.92481
-6.13724
-5.08789
-6.82182
-6.1797
17.6942
17.3919
17.7716
2.69634
1.0507
0.934366
0.997176
0.877288
0.830358
11.4802
3.95247
3.8264
3.73959
19.2579
19.5514
18.7172
-5.14371
19.6058
18.4966
18.8222
18.842
1.09557
21.1325
21.4746
21.3017
20.7122
-2.0459
24.5547
-4.84389
-2.37646
23.3912
-0.523821
-2.41518
0.568373
0.642417
0.655821
-2.77634
-0.826731
2.55384
2.24307
-0.334201
5.50474
6.06252
4.20312
4.55638
-1.77778
1.44242
1.55742
10.5479
0.994238
1.07801
22.3646
0.575549
-4.19642
23.8293
-0.266961
0.943041
-1.16381
10.4055
-1.75377
-1.53388
-1.67924
1.10227
0.585645
-1.98183
-2.13586
-2.1258
-2.01822
3.56067
3.66241
0.279609
0.370457
-0.429095
4.93583
2.74417
2.82673
-0.234105
-0.300531
23.9898
22.1724
-1.31359
-1.27403
-1.8662
-0.189765
0.153781
3.18852
-3.80151
0.745836
0.842337
-0.140382
-6.94952
-7.61814
-6.09792
9.14112
0.62767
-4.25354
-2.39399
-0.397977
-0.395928
-0.322051
-0.667845
22.2463
-2.99562
-2.70175
13.9113
13.1242
21.5165
-3.98959
-0.751897
-6.72499
-4.44115
-1.20732
-0.936201
1.17361
13.741
-4.5316
-5.19619
7.41576
8.39733
-0.484455
2.76115
2.74225
-0.589464
0.624701
1.00685
0.827919
1.04302
-4.92057
-5.52551
17.5882
17.9326
2.45764
2.05363
3.85478
4.23688
24.0581
0.221165
-4.04647
1.98617
2.14654
2.35222
0.571977
0.633728
1.47725
1.49294
1.37042
18.6294
19.099
18.7011
1.86777
1.90957
1.76981
2.0906
-5.61203
-5.06704
-4.85218
-0.454512
20.757
3.83086
3.65542
3.37659
3.71935
18.0319
19.023
9.19937
10.1744
3.17602
0.000521157
2.79391
2.34899
-8.54237
-9.05456
12.2907
11.5045
10.7029
16.346
15.7379
1.74424
1.83283
2.00598
-2.45232
1.43303
1.11004
4.37671
5.14113
4.77793
-0.785861
-0.946814
6.00538
6.05937
6.69008
0.854669
-3.31807
-3.17294
-2.97773
24.5705
22.3526
0.102499
0.241355
0.543357
18.8613
19.0707
-0.868678
-1.31903
-0.512427
-24.3127
-23.3931
6.56499
-10.4066
2.93087
18.698
3.22646
21.5708
18.8238
1.61726
5.95502
5.30124
-11.6401
3.29262
3.19038
3.92921
4.08718
5.93871
-7.74784
-2.9201
17.5726
16.4856
3.23964
2.9075
-11.9118
-12.0007
-0.062472
-12.6367
23.6145
22.3621
20.5629
20.8018
0.464568
-3.93729
-3.50062
13.0289
17.7393
-3.65564
22.8754
-2.07754
18.9752
6.03835
16.329
16.544
-0.517643
-8.83357
-11.3896
16.0448
16.4031
-0.0124504
-13.5768
1.93418
2.55256
3.11633
2.62063
-8.56858
-2.64251
2.58137
0.809585
-1.01272
-1.2481
-11.2995
-10.9311
-3.70111
-3.35954
-15.083
3.70066
3.50797
-18.529
3.3678
-7.85491
-35.2452
3.33612
1.15187
-6.66126
-34.9779
-28.6896
3.56281
-15.5609
-19.2449
18.5154
6.00556
6.23724
-2.72317
18.0946
17.9122
3.2903
2.29705
14.6633
21.7834
21.5581
-4.17858
5.38042
5.17886
-9.58101
-9.35851
-12.4586
-12.0313
-3.30461
-0.312427
15.5669
15.5418
-5.90961
-1.20372
-5.20975
0.34404
0.106759
15.3502
14.3471
-8.01807
2.30609
-8.46373
-7.14799
3.49705
16.6785
16.8252
4.49205
-5.22445
-11.1704
8.72881
-13.4178
-11.0066
-11.0547
15.3525
15.4146
-14.6459
-25.3475
-12.5838
14.5752
-18.0578
5.6352
3.29156
-4.57971
-5.75163
4.33923
17.9884
14.9942
1.98537
-24.7199
-5.01711
-1.15588
1.94319
4.21559
4.44461
-10.4376
-10.2997
3.60034
15.9895
2.38879
-0.200296
-2.56493
6.55799
-0.23208
22.1139
18.8162
-11.372
-7.37867
-2.83248
-2.0222
14.5505
13.5463
-1.2007
-2.01461
1.55986
-12.5709
-12.6168
-11.9104
-11.9348
0.64243
-0.46471
-0.653262
2.57859
-4.64274
-3.60899
-5.94164
8.21064
7.39821
6.8321
-2.56358
-3.28278
-13.2399
-13.4653
4.33988
-1.88149
-1.73596
21.3627
21.6429
21.402
-11.0134
6.55608
4.30223
7.66036
5.37256
15.0742
15.0136
-9.48451
-4.02791
3.40028
-3.11269
-11.4825
-12.3706
5.97659
-4.37016
-11.412
3.02242
-7.53437
-8.10311
-9.59275
-10.1154
-16.5899
14.4049
15.3856
15.8013
2.78641
-10.6556
2.83763
2.29355
5.75469
6.8555
-6.58792
-6.64969
-10.9056
2.97269
3.1949
2.51964
2.38481
2.6213
-4.26507
12.896
-24.0529
0.304607
2.34325
2.52864
-7.6862
-7.79194
1.24174
16.7474
-10.1776
-11.2
-10.7413
5.18187
18.8369
4.30116
1.66425
-22.4647
15.3261
13.4008
4.19355
4.08981
4.29188
1.04447
-2.1408
-20.1901
-0.413967
0.462594
-6.51529
-11.1949
-11.1001
-2.4656
-16.9908
-1.52677
-11.4618
-12.7671
16.9333
16.62
23.8393
-11.104
-10.8446
-11.0159
21.9764
15.0002
14.7739
3.17297
-11.0748
-9.70374
-10.5331
4.04263
-4.48716
6.07398
20.7724
-10.8106
3.18254
-0.514825
4.24975
3.85241
1.74549
1.91116
2.21893
-11.7553
20.4578
1.05365
1.63461
23.5464
2.70983
-3.87337
1.23052
1.14829
-11.675
12.3444
-0.0619075
-0.1536
17.6302
-4.76798
-6.98501
16.3111
-6.57621
-6.03973
1.4811
4.83984
17.2058
17.0721
17.5486
15.6648
2.98349
1.93962
0.57455
0.715363
-3.61336
-4.2639
-9.41423
-8.25559
-9.30967
16.2771
16.5224
18.6892
0.570125
0.857924
-11.6271
-11.7926
-8.34161
-8.70225
-5.33908
-4.79268
-6.06439
-4.55658
-3.99786
3.53388
3.07499
15.756
16.3004
-10.9981
22.2222
17.5197
17.0571
-11.8916
-11.267
-10.8982
-12.7225
4.46767
3.46455
3.6333
3.62527
3.53899
-8.26666
2.97634
3.37712
3.44567
-4.25386
-4.14301
-4.6253
-4.13861
2.38946
-11.3404
-10.7859
3.73511
17.4363
5.38372
6.00895
5.66028
17.1155
15.2805
15.3128
16.5361
16.7917
-0.714036
-0.251449
-0.79168
-2.81111
-2.23829
-2.4775
-2.28483
18.6392
18.8837
-11.7548
-11.507
-11.2124
-11.2594
-3.28443
-2.31374
-3.05294
3.23914
-3.20304
4.54904
15.3994
-9.84107
18.3597
-10.9274
16.7772
16.7998
3.47283
3.51562
3.55791
1.86205
1.70499
2.22126
21.3109
2.01507
1.90376
2.10433
1.9304
1.99756
1.92665
1.70739
-4.77603
-4.29515
6.15072
23.3645
4.12206
-7.22425
5.15035
15.411
-8.24313
3.75765
-18.496
-1.7959
-1.72006
-14.0961
15.7702
15.6507
15.7099
2.66948
2.50104
2.99242
3.19029
2.71567
1.28732
1.13855
1.12367
15.8968
5.50998
5.01838
-10.0952
-9.29588
2.09548
-10.959
-11.7639
-11.1067
-2.667
-3.33903
-2.62249
21.529
-18.1621
23.0207
3.52098
2.85139
3.43382
1.73142
21.736
17.3885
17.5856
3.58412
17.1325
16.6449
16.3037
16.5831
0.568204
1.14034
14.0194
13.8986
-11.0016
-11.0806
-0.309517
-3.44446
-8.03077
-7.04926
23.327
4.47979
4.05164
4.56766
1.28913
-12.788
-13.0598
-12.2953
-6.54994
-10.0507
-9.96121
1.26328
0.8382
5.61647
3.63708
3.78558
3.51278
3.50878
3.54054
3.45431
21.723
3.41371
2.79696
2.98826
2.69717
3.01391
23.5319
18.6524
-1.15662
-1.44686
3.39592
3.47098
3.50592
3.34354
3.18206
2.62603
15.7001
15.7784
3.52011
20.6602
5.13924
4.60902
-9.62112
-10.3355
-10.7585
20.0024
4.25703
3.92496
23.7584
20.974
20.8419
8.65596
8.4099
8.57815
-3.38321
-10.1029
-9.07237
4.15447
3.71595
16.3174
16.4419
16.6786
1.02819
0.477954
15.8524
22.2072
5.85443
-9.49169
-9.38374
-8.42576
21.7304
21.8044
4.12333
4.17775
3.72932
3.35095
3.17044
3.31552
14.8752
23.7986
0.958969
20.0911
5.31834
5.32723
-16.0757
-16.8863
17.7245
17.6073
1.54715
0.905079
0.565567
-0.0591324
-0.0577741
0.755792
-9.05501
-8.44289
-2.05874
21.6972
24.0954
-11.8868
16.7592
16.3493
-19.605
-19.5152
15.5549
-11.3474
-12.1834
18.3303
2.03926
2.33051
13.4888
13.7729
-15.5384
-11.6984
21.3793
6.85055
6.98962
-1.23044
-1.45174
-9.49367
-9.32111
24.1066
24.0984
-11.3569
4.57106
4.22754
24.2953
4.45353
4.90639
12.9666
-12.8137
-13.308
-12.5106
5.17854
3.38637
3.73082
3.38517
3.48334
3.66808
-11.2267
22.8996
3.18315
3.51327
3.57153
3.48877
1.83376
1.42346
3.11141
3.52597
0.123218
0.00135953
7.77597
3.2848
3.44096
20.9282
21.3416
-10.2179
-10.7083
-11.0663
-10.9065
16.7725
-11.3271
3.11185
3.3407
-1.73751
16.5116
16.4326
21.2758
21.6752
21.2814
21.2226
3.15423
12.9394
12.6423
12.4569
-4.02653
-3.45946
-3.02938
-2.62925
15.9469
15.1564
16.2123
16.6544
-6.8931
-7.23236
-7.50545
22.5451
22.8214
18.287
18.1691
15.3615
15.611
15.505
15.4979
-16.83
-12.0244
0.617394
0.472609
-5.20574
-9.35195
4.08994
4.39919
-9.56977
-9.54813
-9.09146
-8.15163
4.84665
4.55442
1.27284
1.2355
2.32958
2.46805
16.4871
16.7562
16.3382
15.9564
3.60416
3.54022
3.36845
3.56254
-2.20648
21.2963
2.49492
2.76477
3.00932
2.84036
6.48039
-10.3042
-9.63367
-10.1874
-5.73507
-7.13264
-6.83338
-7.12164
15.6621
15.236
15.5865
-5.70418
4.64282
-9.18706
-7.62364
-9.53819
-9.44028
-8.92764
16.6549
16.5039
16.6945
-8.25435
-11.6238
-11.536
-11.4923
-11.3782
-10.1056
-9.59499
-10.0922
16.5181
16.262
16.0764
-2.54266
-1.98969
-0.754863
-1.43815
4.4876
4.42708
4.64949
2.17664
2.45683
1.94224
3.9908
4.11066
3.89064
3.61226
3.59523
-11.1715
-10.9407
-11.1871
-11.2064
-11.4611
-9.56903
-8.7352
16.7498
16.4538
16.3177
-4.35513
-5.0016
-4.44863
17.8892
-5.18477
-5.35905
-7.90623
-8.46998
19.8076
19.1727
14.825
14.9833
17.7006
17.3984
2.06276
1.86988
-15.1113
-8.36684
-7.50314
-8.08264
-12.381
-12.9241
-15.0888
-5.45728
-6.05366
-6.71913
-7.18358
-7.51775
3.05946
2.57835
3.19718
3.22436
-23.7354
-23.3438
-10.9571
-10.9195
-9.85569
-10.701
-8.35988
1.01976
3.75162
-22.9667
14.4248
14.7012
3.6023
3.55908
3.43032
19.9531
19.9349
19.7959
-8.29892
-7.28496
2.5634
2.26058
2.5256
3.44565
3.24599
3.22764
3.2803
2.21091
2.59986
2.55242
-7.16889
-7.36638
16.2698
16.4172
16.5963
2.80945
2.07842
3.29192
3.47886
3.76218
3.07418
-8.64499
-8.56686
-8.7433
-8.21139
-11.505
16.7073
16.7079
-0.402528
-1.1344
-1.48522
-0.918066
18.0878
17.8868
17.629
17.9527
5.60967
5.7617
5.73264
-2.68296
-1.96038
-1.18317
-1.23351
-1.00225
-1.26948
-1.99046
16.1486
17.2482
16.5456
16.8721
18.9259
-6.64012
-7.08453
-6.5463
14.6359
14.3764
14.0906
16.4605
16.8663
-8.18811
-9.13752
-8.57191
-8.40075
-5.86806
-5.36255
2.87413
2.48162
2.78139
2.66783
3.46277
3.86797
3.17878
5.02085
4.60854
2.60915
2.94657
15.7504
16.0187
15.8442
1.17977
1.01164
2.22779
2.40074
2.39104
2.53622
14.907
15.1624
15.2114
-7.82913
-8.17346
-6.88489
-8.03302
3.83523
3.85338
3.68109
-7.59701
-7.23247
-8.04138
17.5718
17.595
16.1877
16.2118
15.9805
17.0162
16.7258
16.7434
16.6766
17.6348
17.6923
17.5155
3.21671
3.41477
3.23136
2.97107
-13.7283
16.8331
16.4456
16.823
16.6198
-11.7771
-11.7387
-11.5805
-11.4144
-5.98853
-5.47471
-6.35514
-6.80171
16.9765
16.9668
16.3548
22.8872
22.8911
22.9526
0.57083
2.62202
2.20809
2.45688
13.659
5.13904
4.86439
3.98693
-8.85202
-11.8097
-1.59137
-10.5382
-10.6702
-10.4513
-9.93808
-11.8752
-11.8
3.34091
3.33097
2.98043
16.8466
16.6633
16.5492
3.62142
3.49792
3.49149
3.91197
21.6311
21.7202
21.3971
21.6827
-6.07146
-5.86621
-5.65683
3.90371
3.74647
3.90933
5.31884
4.51364
4.80322
4.75207
-7.65269
-7.84942
-7.41283
-12.2258
-12.3039
-12.241
5.32862
15.3656
14.8534
14.6905
14.9725
-4.81268
-5.07012
2.89215
2.66639
3.83081
-0.174039
-11.1829
-10.8955
-10.5587
1.33431
2.22205
0.974741
-9.43875
-9.0337
-8.71433
-8.41007
-9.88455
-10.1166
-12.4937
-12.2473
-11.6118
0.991702
0.797433
-0.0581503
2.52734
2.45769
2.44978
-8.7448
-8.42707
-8.70021
-8.52296
-26.5024
-25.6234
-3.44559
-10.7576
17.7732
21.2329
3.81695
3.44309
3.85982
20.2776
-25.9138
-1.90052
-1.38261
-1.896
7.89542
7.84665
-2.20806
21.6013
1.9334
1.79499
2.14075
1.95941
1.93484
1.58408
1.62818
-6.34706
-7.4541
-6.71931
2.01712
2.6079
3.18399
3.00393
2.74542
3.00127
-3.43865
-3.72916
-3.29798
3.60355
3.44518
3.34583
3.17733
-13.4062
-12.7858
-10.7211
-10.178
-2.17901
0.0829576
-0.336555
0.146981
0.0813483
-6.68079
-6.30519
-10.0636
-9.80545
-10.458
-10.4685
-2.03225
-11.7944
-11.8688
4.28431
3.46309
3.65363
3.83089
3.62195
17.556
17.8668
17.7749
-5.57227
-5.34246
-10.8609
-11.2845
-11.2004
-3.4271
-2.93721
-2.42614
-1.65971
2.85611
2.44382
-11.3431
-12.8892
-11.26
3.55927
3.53006
3.7138
17.26
16.8103
16.5521
16.9933
16.5635
16.6525
1.79516
-4.99388
-5.7847
-5.93264
-5.95086
-3.62149
-3.91223
16.9124
17.2336
-3.76775
-2.82415
-2.37767
-2.47841
4.65596
4.02822
4.49477
4.60557
-2.36483
5.78903
5.69661
-9.24843
-9.62274
-9.72127
-9.8358
-10.3294
-10.5879
1.28225
2.94283
3.27371
3.0996
-0.998511
-1.64808
-1.59885
-1.58576
22.0949
17.4182
17.9677
-15.624
-16.8237
-9.26138
-8.64467
-9.11258
-8.21844
-21.1742
-4.78511
4.46841
4.73007
-18.3252
3.3169
3.15752
-9.11675
4.27734
4.364
3.70514
3.78195
20.4216
20.7004
1.9317
-10.3836
-9.67858
-10.2624
4.09356
-6.0344
-6.77023
-6.52559
-5.46646
-6.12892
-4.60549
-5.20057
2.45678
2.2275
17.757
-10.362
-10.0135
-9.50743
-10.4489
16.3728
15.9504
16.743
16.8659
3.32887
3.09117
2.84705
3.29005
3.23005
20.52
-5.10725
-4.87623
-4.98778
-4.10515
-7.54912
-8.30613
-8.42321
-8.1788
1.5379
1.47119
14.4995
14.2076
14.5861
-5.87421
-5.81538
-11.6102
-3.72978
-4.12112
-3.11128
-2.71667
-0.499672
-0.991774
21.6406
17.7297
-6.70037
-6.21386
-6.43959
-6.79463
16.8095
16.9626
16.6767
21.1293
3.53079
3.71237
3.33295
1.29972
1.25171
3.2408
-5.85317
-1.71438
-0.396347
-0.957762
3.99336
3.6989
-4.28072
-3.46693
-4.61374
-12.6561
-11.9258
-11.8379
-11.9274
-0.928031
0.118407
-0.85902
3.0584
2.88773
3.19225
2.63593
2.87033
20.4728
20.8626
20.8573
21.142
23.3235
-3.55033
-2.7941
-3.52539
2.34932
2.69709
2.95565
22.2607
23.4717
4.8672
-11.2519
-11.3252
0.84328
0.977632
-10.9545
-11.1007
-10.8008
3.43421
3.44118
3.60427
3.49838
2.44805
-0.999514
-0.65199
0.0995413
0.145577
2.36328
2.04717
14.7758
14.9895
3.81309
3.88127
3.92041
3.76419
-13.4801
-12.4705
-13.5327
-11.4851
-11.3037
-11.4328
-10.6871
-7.81522
-7.19184
-8.4007
-8.53488
-15.146
-11.8333
-11.8928
-11.6663
19.2805
20.8229
20.9286
20.2635
20.5882
-9.26999
-9.38519
-8.92113
4.47069
4.31544
4.50077
1.69648
1.74383
-2.39084
-3.1392
-2.92294
-3.55313
1.2263
0.640245
2.17077
1.776
-0.4827
-1.17227
-0.529612
-0.417019
3.23513
3.31724
3.46797
3.03716
-4.66451
-4.8144
-4.65567
-20.9044
17.385
17.632
-6.94205
-7.69552
-7.57166
-7.18111
-9.35271
1.70608
1.14491
1.94883
1.61624
6.22128
4.92699
5.71505
5.26949
4.84313
-10.9556
-10.8422
-10.3409
-19.2363
20.3343
20.372
3.92165
3.93029
3.46135
5.16469
5.36637
5.10896
24.6775
-11.4295
-11.8496
-12.018
2.07158
-11.6553
-11.8612
-11.8811
18.1688
18.0772
17.9487
-11.8621
-1.76849
-1.13097
-0.52591
-0.0610688
22.3797
-10.4195
-10.131
-9.12239
-10.7568
3.70413
3.53961
3.59228
16.8045
16.774
-10.7232
-10.76
21.6478
0.890096
0.050024
1.04901
1.64493
-8.19694
-7.30593
-7.1468
17.2395
1.47296
1.49589
3.07612
3.1974
2.79383
3.01866
19.6951
20.1827
19.9818
20.449
17.3319
16.3153
-7.55388
-2.57478
-1.85805
-2.16781
-2.2682
16.9566
17.2631
16.7092
16.6607
-6.20997
-6.29381
-8.61038
-7.99482
-8.49292
-8.61075
7.36749
-7.4881
-7.8658
-7.79741
-8.16145
2.45387
3.23153
3.36862
-9.05024
-8.56215
15.6411
15.4748
3.42868
16.8723
16.9243
0.627849
4.86183
2.39824
2.425
2.69202
2.52314
-5.6556
0.217818
-17.4287
23.9628
23.9699
19.8065
-15.9305
24.0469
23.9782
23.9487
-20.0592
-0.27484
-14.3182
-0.0633744
23.8546
22.7734
23.3867
23.5805
-1.77229
-0.00534756
0.0197425
0.0871745
24.1833
-4.05836
-3.4994
6.2171
7.08574
-3.9751
-4.44213
-0.966213
-0.177171
20.1024
24.1823
23.4486
-0.518895
22.1025
23.0197
23.3974
22.3929
20.8835
6.769
1.94405
-15.9226
18.1474
20.3073
23.2002
0.433127
23.9718
23.9562
23.9508
-1.8943
23.8295
-4.11185
-4.52906
23.6251
-4.06725
23.7086
-12.0113
-12.4915
22.0431
19.8464
20.8126
1.10028
-2.83544
21.9896
1.01986
0.800695
-16.0457
20.283
20.6828
0.512513
-0.560564
0.621554
0.850251
-18.8893
-19.4098
7.31138
-25.7556
24.3925
24.5498
0.608407
0.386629
23.3146
22.1337
-19.1001
22.1539
23.7049
21.5668
9.7695
11.3533
10.6418
-6.70972
21.6414
4.64531
24.3447
24.659
22.1575
8.38173
7.72778
19.4553
24.3517
22.6847
22.7473
0.910756
-8.34676
5.86165
6.78759
6.16732
-3.53721
20.0988
-1.24112
24.4618
24.3969
24.4728
6.93101
20.113
22.0961
20.2474
18.3339
18.2721
18.0674
22.1319
23.2396
23.1852
22.8116
23.21
22.9883
18.6192
24.0838
24.0834
19.8601
18.8995
20.313
23.0524
23.469
23.4493
23.3845
16.4735
16.5268
22.6914
22.8663
22.927
24.4917
-27.3805
23.6354
20.8117
24.6228
24.6542
23.13
23.1355
22.9674
23.4454
23.4008
22.153
22.4032
1.82287
-21.3621
-11.3484
22.8366
-27.5434
-26.4486
-13.0018
22.101
2.98041
21.0886
-0.450408
22.2466
4.21318
22.7759
24.2527
1.43293
24.4825
0.348099
0.0251899
1.95048
2.2332
19.6554
23.9154
-2.68103
0.897264
1.16522
21.4064
-12.1196
-12.2099
2.72272
23.8936
20.4577
24.5427
24.3772
24.3462
24.3338
24.0314
23.5905
3.52457
22.3569
23.5896
23.5338
20.4965
20.3711
22.6845
22.6962
-2.52039
11.0283
24.2224
24.5681
1.63313
1.66363
22.4894
22.4299
21.0333
21.0692
18.4423
1.56241
-14.8043
20.0029
20.6723
19.9637
-1.00245
-1.00186
-0.707427
-0.188732
22.7643
22.5964
1.99216
-12.8805
20.5724
17.9834
17.6146
23.3502
-1.33176
0.257929
19.9783
20.0685
21.4037
-2.91295
-2.72918
17.6275
17.6999
23.1036
-4.94069
-5.98206
17.1732
17.3254
19.4893
19.5568
2.16
1.8546
-0.245184
-3.43572
-3.94453
0.46665
0.40714
21.8841
-0.786706
22.8335
17.5739
-2.43783
22.4972
18.3457
18.6182
-22.4222
-0.507599
21.6394
21.7829
20.9842
21.7637
21.7942
7.17578
22.0305
22.3109
22.3708
-0.80341
2.39648
2.2853
23.0974
4.32119
22.5328
-20.594
-2.41685
-1.88706
0.116492
22.1322
22.1998
21.0037
-23.6917
19.6145
18.4471
22.027
-3.35146
-3.27958
22.0719
21.7632
21.8375
21.893
21.9466
-25.3235
24.2352
-5.54508
21.7674
18.3289
18.2252
18.3993
22.7761
21.6739
-1.13311
7.30977
6.74481
0.0919989
0.175431
-17.8699
22.1151
-17.9725
18.5606
18.536
7.89604
8.63929
7.73542
-3.75782
-3.62906
-17.8669
-0.233877
18.7338
1.47969
1.58393
1.70574
18.7682
22.2707
-1.81656
-2.3935
-0.0850089
-2.05671
0.895895
0.480764
1.77082
-3.21756
19.0992
-8.91015
-7.2635
1.45784
1.10994
2.37514
22.0643
21.8823
-0.46977
-13.4485
22.0378
17.9026
18.1331
17.3035
17.0799
17.0246
-10.8296
23.464
22.5506
22.5748
18.5463
20.1095
1.82983
1.74091
2.19741
1.89612
23.503
23.4757
-2.31331
20.2773
20.2343
19.8989
19.8449
19.4111
20.9066
20.7746
20.508
1.04023
1.15439
1.31804
4.75936
1.98406
0.640114
3.48759
-6.84142
-6.61628
23.7739
9.27024
-4.8347
-3.82613
-4.22999
-11.0134
-10.6065
3.63333
19.5287
19.0351
19.0498
24.4714
0.0297655
20.9761
-10.5496
-10.7659
-10.874
-10.6339
24.1489
3.09921
2.83557
24.0096
17.896
-4.86292
0.69991
0.80259
-0.54374
-0.460786
24.6142
17.8498
-5.91184
-6.0247
-5.87669
-6.76038
24.318
-1.82393
-2.34252
-1.77466
0.747971
0.7158
-3.03177
18.8488
18.7239
-0.478293
19.4558
-8.45154
-8.20975
-8.65779
0.486534
22.9662
-0.862494
-0.460129
23.3892
23.1553
2.00295
1.64548
7.81704
9.07091
17.3199
17.2991
23.2607
-7.59424
18.1272
18.0829
17.8555
17.9387
0.730772
-1.21055
-9.43129
-9.88878
-10.4285
23.8317
23.8297
-6.06554
-6.2734
-6.20931
-10.3429
-8.3201
-12.5493
-12.9561
17.4341
-4.65886
-4.41687
23.9976
16.7358
17.2099
17.1276
16.7379
18.376
18.4997
-1.55753
-2.48545
23.1967
-4.12588
-4.46824
-4.82237
1.74694
1.19553
23.0004
0.72636
21.8359
22.6017
-3.72319
-3.66853
-3.04073
-8.27914
-7.7684
14.8411
14.1749
18.8525
18.6178
17.8289
18.4578
18.3505
18.8585
19.3264
19.1339
18.906
18.8521
17.1314
20.9803
22.2416
10.8107
-12.3531
-12.5055
-12.1348
23.5698
21.0702
3.63174
3.37089
2.22507
2.32029
2.11177
20.1525
-10.7706
-3.27343
23.3412
0.00499756
-4.87837
16.7925
16.4645
16.4489
-0.492489
22.1446
24.6457
-6.34039
-2.92311
-0.585865
19.2662
19.4056
0.883325
-13.4793
-13.9431
21.7449
-5.09041
-9.9862
22.5803
-0.814091
-1.32233
3.53564
3.62057
-0.652651
20.3475
-16.9753
18.2371
21.2598
20.3429
19.9459
0.861262
0.520889
18.7995
18.837
18.5046
23.2276
23.2024
0.20447
-0.507371
0.957023
0.985879
3.80012
3.55302
24.3738
17.1802
17.3376
23.0868
23.0549
2.05218
1.93506
-5.31011
-3.29589
-3.28396
-0.228676
-0.498015
0.74102
0.552596
12.4873
0.837606
0.840862
-10.439
-10.258
17.2527
17.3211
-6.8317
-6.47883
0.645359
-18.0455
-17.3686
17.5818
17.3952
17.3079
17.2416
-6.01228
-6.36047
2.28926
2.17025
2.02887
1.51445
2.12281
2.37014
21.4701
21.5149
1.52553
1.71452
1.58602
22.3498
21.3662
6.50182
7.45329
21.116
17.0238
17.0062
16.8927
0.218646
-6.58125
-5.50155
23.147
18.8955
18.7662
-10.1214
0.811021
22.0913
-1.53003
-1.41628
-3.17659
21.6168
21.8032
4.34574
4.4556
4.83325
4.84388
3.38458
3.31633
-3.54208
-3.60372
-0.221702
-0.408016
0.688016
0.650824
0.679944
4.80175
-8.27598
-1.74081
16.7733
17.0183
15.5235
16.5101
17.9145
18.1555
18.1495
3.4105
3.31534
18.3531
-3.41119
-13.7001
19.783
1.20495
1.29216
5.82712
0.815281
-0.350275
0.340081
0.524598
16.5872
16.7987
-0.746308
-10.636
-10.0432
17.4596
2.72969
2.09985
-6.06944
0.633542
0.685291
17.2121
-13.284
0.472357
-1.51154
-0.398494
-0.196586
17.996
17.8759
19.4429
18.8734
17.7602
18.1689
4.51597
22.7498
16.8207
16.9121
16.9008
-6.86026
21.977
-6.84301
-7.26829
-9.46
1.85604
1.73344
2.01237
3.30828
-5.35324
-6.13855
2.58904
3.07902
2.85429
1.62134
1.34656
1.30253
0.0366953
-0.10701
17.0122
16.9432
20.9356
21.0682
20.9585
0.978638
0.902456
1.41628
1.5018
-12.8612
-0.634603
5.35436
6.31826
-6.15741
-6.26886
-9.03933
-9.43789
3.17617
3.13113
3.04852
8.79933
8.11541
9.45692
-0.35143
-0.34136
-0.152398
1.58348
1.87638
1.5928
16.2209
16.9802
2.52644
2.39632
2.14029
-10.525
-10.1573
-10.6096
1.56433
1.47756
-10.731
-10.9787
-5.52969
-6.88052
-6.78572
17.5956
17.519
-18.2116
-17.579
17.5631
17.2662
17.2059
3.09415
-2.79037
-0.251985
16.6399
23.8763
0.522328
22.8649
2.80752
2.88427
-9.75789
21.5541
2.7544
1.40148
1.27605
3.03852
2.97359
16.8827
17.0154
0.689003
5.33571
5.19106
-5.37481
4.26903
4.01972
3.76219
0.235716
-0.158428
6.02098
3.61982
3.63599
5.13262
5.45672
1.05908
1.36135
18.4988
18.4608
2.94307
3.20508
-23.9177
3.97814
4.1513
-4.20347
-5.32515
3.46614
3.44845
5.37324
5.67292
4.21826
4.09833
-2.26764
-2.439
-2.62592
18.2954
18.4498
18.5565
17.2932
17.4421
21.5728
-1.50189
-1.3998
8.03837
-4.87631
-5.01365
1.41588
1.196
-4.47454
-3.59486
-4.70434
-8.37746
-8.76302
1.57082
1.70967
-0.380353
-0.145609
17.7525
16.9565
-10.296
-10.0356
-8.40689
-8.80269
-8.98232
-7.38115
-6.91364
-8.3687
21.2384
-4.41874
-4.23669
-4.37713
18.3609
18.3777
18.7439
16.1491
15.7419
-0.704502
19.9684
19.9206
16.7102
16.6408
1.04633
1.21628
1.30267
3.5582
3.10715
3.08365
16.6059
16.7732
21.5756
21.3947
18.2482
17.8553
17.8875
-2.89946
-3.29477
-6.80302
-14.4223
-14.1212
20.2948
20.2618
20.5795
23.3869
3.9681
4.41927
4.90698
-0.271635
-0.22704
3.56069
17.759
18.3741
17.9237
18.4771
17.6239
16.7931
17.4932
18.0932
1.35131
1.32424
-5.76971
-5.28661
-5.76175
-3.23699
-2.96014
-21.8602
-2.23973
-2.45972
-9.41415
-1.84932
20.417
20.4361
-3.83995
-3.46464
-3.46163
1.35068
1.28733
1.10945
1.12943
0.656674
19.1108
2.10858
2.53844
-0.196281
-0.0727259
-0.188402
-14.0547
-13.3873
-11.8955
22.7819
22.6369
-16.0018
-15.4321
0.800603
1.42478
20.9037
20.9992
20.4074
20.934
-0.52568
-0.498979
-3.79572
-4.26084
-0.120193
-0.330958
-0.615997
17.1501
17.1728
15.7642
0.811263
0.741018
0.773869
-2.88132
-4.91218
-4.75297
-5.24278
0.974481
1.8499
2.52807
2.05431
0.938704
0.847079
0.773965
4.02957
-0.899906
-0.652626
20.0571
8.25741
0.783277
19.8824
19.4064
-13.4906
21.4737
1.16927
-11.9133
-10.7152
-8.13818
-11.3456
11.1886
7.50859
-1.63617
6.26825
-4.84997
-1.27161
9.78249
5.25688
-17.2311
8.62797
4.47247
-9.42657
6.29926
12.4122
11.7739
-7.67149
7.26633
5.55939
9.95741
-8.74062
-15.7882
10.5291
-11.6539
11.7339
6.63143
2.81614
-6.71382
-13.1719
11.0703
12.7979
6.6993
6.79091
6.75882
14.6861
9.65473
-0.808517
-1.70497
-1.8539
-21.5535
10.5636
12.1113
11.6714
2.44455
3.2539
2.58989
3.41538
5.10111
10.2215
-13.7807
-14.1078
-7.47432
7.15431
-12.1573
1.75174
11.0699
-1.57496
-6.60103
11.088
2.22462
-2.21687
-8.30131
11.4971
12.4532
-30.3392
10.9749
-6.54123
0.0450831
15.0583
6.9386
-10.2563
21.1162
21.534
-11.138
-11.7694
6.78667
7.802
7.81931
-6.97309
0.125693
5.27845
2.48922
12.7569
9.64531
12.8583
-4.63251
-4.74101
10.4215
10.0236
10.708
-19.0219
13.3722
13.246
-4.91912
-5.18808
2.92854
5.50116
7.32251
7.84352
-13.5209
-14.739
9.95662
10.7396
13.12
13.3925
-0.015053
1.02218
-14.825
-15.8431
-0.234499
0.668319
-14.4557
-9.07932
-10.2086
8.32734
7.95102
-12.9115
9.71386
8.86746
4.70022
4.9803
5.8423
6.16012
-13.0436
11.221
8.66123
-0.701952
1.94385
-12.9444
8.08064
-14.6372
-1.31666
14.8746
-1.88833
2.05261
10.9418
6.56646
-0.244206
0.427421
-11.9212
-2.54352
13.4294
2.1836
1.26443
-1.17087
5.71912
-0.412185
-1.36057
8.10562
8.96772
8.70666
6.75294
16.3175
-3.44151
13.7888
11.4319
11.9375
1.82508
1.04101
15.7635
15.9386
5.02276
-19.6154
-0.395386
0.440444
-11.0436
-11.1802
9.984
9.97895
-8.78598
-9.31521
-10.301
13.8233
14.0787
8.85785
-28.5588
9.32094
10.6611
10.8245
-16.6251
-3.70113
6.91166
-17.7694
5.70101
-21.979
-4.89616
-3.37395
3.03336
2.65853
-14.5514
-1.19926
5.90495
2.72704
2.01729
1.14882
1.86844
9.97121
12.8391
13.0752
15.9347
-2.13203
-2.94709
-12.7946
10.1951
5.50962
-15.2133
7.47348
7.46454
7.89419
1.52241
2.11775
10.739
5.99368
6.16529
2.64272
2.88933
10.5843
9.77487
3.08208
3.8456
-4.84965
11.4805
11.0463
-14.6001
2.40205
2.50836
2.20081
2.50964
2.68508
2.57031
-12.9174
-2.62472
1.39616
2.4453
3.28772
5.45294
2.74046
2.39183
12.5421
12.2544
3.34697
-11.1352
12.2448
-15.1402
-0.914413
-0.254578
12.3359
12.1101
9.74502
9.22605
-12.1246
6.35227
-4.96597
-4.91022
7.83979
8.64703
5.71623
-0.331008
-0.0320484
0.529155
13.4839
14.3093
8.83548
9.20652
10.3166
10.8057
10.6615
10.8705
5.12843
4.42382
-12.5411
-12.6922
-0.963617
-0.7236
-1.45351
-1.6524
21.1209
21.0849
21.3441
10.9704
10.644
10.596
5.6508
5.4271
11.2353
11.2783
11.3581
3.47006
2.51675
14.3056
13.4501
11.0882
10.935
11.3715
11.6724
-11.8841
15.1407
15.2751
-0.561545
-1.73617
9.32795
9.07988
3.93728
4.54427
2.33877
3.05259
9.54653
6.47085
1.04819
-7.10268
-7.54698
-12.854
1.91361
1.55783
2.24175
3.04183
8.53461
-9.55551
-10.3988
-9.39781
-1.95781
-0.122937
0.847785
15.2097
15.8724
3.29014
2.68237
11.6908
11.9377
-3.16915
-3.41908
13.7365
13.9341
2.57931
3.30324
10.0322
10.2515
10.4866
10.2167
8.8364
9.03451
-3.69157
-2.75304
11.3482
11.2245
-16.192
-15.0377
21.9697
8.98302
9.70145
9.91444
-8.70189
-9.41199
-1.46935
-1.30646
-5.05364
5.48177
5.48881
3.01473
2.44452
11.2009
11.3758
4.77826
-25.3337
-14.7248
6.0889
8.45532
11.8653
9.99041
-1.08208
4.40998
3.84539
9.59185
10.2769
13.9025
14.4586
13.9561
11.0096
10.4769
-12.7778
-4.02823
10.5898
10.794
10.5392
11.0074
3.91511
3.68542
3.37879
3.48162
1.87501
4.07126
3.25335
6.53378
5.6801
5.88822
5.8949
-11.7598