/*--------------------------------*- C++ -*----------------------------------*\
  =========                 |
  \\      /  F ield         | OpenFOAM: The Open Source CFD Toolbox
   \\    /   O peration     | Website:  https://openfoam.org
    \\  /    A nd           | Version:  6
     \\/     M anipulation  |
\*---------------------------------------------------------------------------*/
FoamFile
{
    version     2.0;
    format      ascii;
    class       surfaceScalarField;
    location    "1200";
    object      phi;
}
// * * * * * * * * * * * * * * * * * * * * * * * * * * * * * * * * * * * * * //

dimensions      [0 3 -1 0 0 0 0];

internalField   nonuniform List<scalar> 
44596
(
1.53738
-2.164
0.626612
1.53738
1.4464
-1.4464
1.93747
-0.491076
-0.0939223
-2.14778
2.1005
-0.563117
1.31123
-1.31123
0.215892
1.81681
-2.21223
0.765837
-0.267221
2.30057
-0.800008
-1.20657
0.800008
1.30049
-0.560876
-1.34464
0.560876
0.750354
-0.594289
-0.825727
0.825727
-1.17062
1.38651
1.19419
0.637292
-1.83149
0.0430067
1.5031
-1.5461
1.42619
-1.42619
-0.147237
-1.67572
1.82296
1.54881
-0.0868072
-1.462
1.12432
-1.12432
-1.10495
1.10495
1.12375
-1.12375
0.237883
1.24478
-1.48266
1.371
-1.371
1.46897
0.0798322
-1.31658
1.31658
0.266908
1.3503
-1.6172
-1.58286
1.58286
0.601398
0.58216
-1.18356
1.94186
-0.515678
-1.25465
-0.217871
1.47252
-1.43009
1.43009
0.706585
1.29323
-0.793311
1.4999
1.47168
-1.7669
0.295218
-1.62251
1.62251
1.05484
-0.816956
1.24656
-1.41717
0.170616
0.962167
-0.962167
1.20183
-1.34907
-2.31123
0.831629
-0.831629
1.00918
-1.09599
1.84081
-1.92762
-1.58791
-0.614046
-0.790218
-0.797695
-0.897726
0.897726
-1.03975
1.08275
1.98048
0.0634099
1.48736
-1.55077
-1.53509
0.135152
1.39994
-1.55077
-0.458537
0.00809676
-1.43819
0.113513
0.211625
0.259644
-1.81041
-1.50726
1.81041
0.529579
-1.20834
1.99855
-1.43819
-0.943687
-0.473486
-1.55789
1.55789
0.896417
-0.390228
-0.506189
-0.814175
0.415263
0.398912
0.703032
-0.113692
-0.58934
-0.00142599
-0.0923511
0.0937771
-0.0597382
-0.0641735
0.123912
0.0614633
1.44163
0.853746
-0.792282
-0.00330824
-1.45869
-1.20613
1.20282
-0.0394897
-0.00363304
0.0431227
0.124239
1.06996
-0.793427
0.554913
0.238514
-1.66214
-0.0135836
-0.349463
0.929012
-0.579549
0.416616
0.595353
-1.01197
0.0481159
-0.882588
0.834472
0.00909079
0.067278
-0.0763687
-0.0359503
0.0098015
0.0261488
0.096291
-1.02751
0.931219
0.805393
0.636239
0.710463
-0.608649
-0.101814
1.24567
-0.142521
-1.10315
-0.163134
-1.09498
1.25811
1.53277
-1.69591
-0.0218524
-0.0140979
0.00517147
-0.0446612
-0.9351
-0.727041
-0.0373803
-0.897719
-1.0765
-0.00678159
0.0330476
-0.026266
-1.30921
-0.149479
-0.440913
-0.868299
0.0104063
-0.803834
-0.803768
-0.679594
-0.608924
-0.325735
0.934659
-1.19947
0.981603
0.000680115
-0.000680111
-1.10217
1.25409
-0.151924
0.2518
0.904746
-1.15655
0.818739
0.0691197
-0.887859
0.0166309
0.912381
0.913048
0.898797
-0.481392
0.898008
-0.886547
-0.319578
-1.13139
-0.30769
1.43908
-1.1982
0.260155
0.938046
0.536774
-0.853943
0.317169
1.05611
0.943789
-0.74502
0.75477
-0.00975012
-0.883011
1.05363
0.848669
-0.211377
0.253498
-1.18856
0.935064
-0.98036
-1.02888
-0.282847
0.985879
-0.898012
-1.41322
0.935392
0.308271
-1.24366
-0.00953719
-1.41665
1.14093
-0.205864
1.22227
0.758214
1.07598
0.923959
-0.632232
-1.29538
1.07315
0.171632
-1.10661
-0.877445
-1.85213
0.745517
-1.63693
-0.194556
1.15846
-0.735607
-0.422849
-0.102314
0.802367
-0.700053
-0.952525
0.0842256
0.886593
0.116497
-1.06018
-1.32169
0.420132
-0.913495
0.493363
0.82353
-0.611905
-1.5254
-0.806356
0.33287
0.3521
0.715996
-0.776632
0.060636
0.809405
-0.695892
0.0486156
-0.0395248
0.0385825
-0.0453641
-0.535249
1.02861
-1.234
0.698755
-0.00125701
0.001257
0.866156
-0.879993
0.0138375
0.130548
0.000784483
-0.000784492
0.000784458
-1.0998
1.0998
0.862261
0.80307
-0.672522
0.756686
-1.25259
0.495903
-0.720094
0.570201
0.149893
-0.00963176
0.396123
0.457623
-0.566078
-0.23769
-1.55047
1.49311
0.057366
0.208246
-1.09126
1.53277
0.946401
1.38767
-1.46957
0.0818908
0.00158136
-0.00158138
0.000796869
-1.00425
0.890563
-0.85853
1.15894
-0.300407
0.817546
1.41894
1.29522
-0.713064
-0.638426
-0.373542
0.656797
2.35168
-0.98068
-0.145846
-0.923403
0.231121
-0.646484
0.415363
0.0611378
0.801123
0.285733
-0.875073
1.04375
-0.0621421
-1.18589
0.94561
-0.246856
-0.130893
0.793787
-0.113051
1.23725
-1.35878
1.35889
-0.00011625
-1.04191
-0.504187
-1.53299
-0.767154
0.383421
0.0479886
0.627594
-0.675583
1.2097
-0.153587
-0.149078
1.7065
-0.48419
-1.22231
-0.145622
0.758387
-0.406287
-0.627905
-0.226038
-1.40227
1.33877
1.96538
0.00401662
-0.00307915
-0.000937477
0.00149198
-0.0067396
0.00524762
-0.0281562
0.0281779
-2.17099e-05
0.0410729
-0.0199661
-0.0211068
-0.00470493
-0.00484931
0.00955424
-0.00969281
0.00498788
-0.0562582
0.0111101
0.0451481
-0.01841
-0.104597
0.123007
-0.0055182
-0.00543341
0.0109516
-0.0648809
0.0492362
0.0156448
-0.112337
0.072888
0.0394492
0.0627386
-0.00922288
-0.0535157
0.00616134
-0.00520436
-0.000956972
-0.498919
0.32441
0.174509
0.0191206
0.00160841
-0.020729
0.00676977
-0.00481793
-0.00195183
-0.00117877
0.00117877
0.00390741
-0.00942561
0.00721403
-0.00473384
-0.00248018
0.0199096
-0.0419752
0.0220656
-0.00738704
0.00555735
0.0018297
0.00368164
0.00308814
-0.0498366
0.0042924
0.0455442
0.0433132
-0.044731
0.00141786
0.0110887
0.0132074
-0.024296
0.0363066
-0.0252179
-0.0550484
0.0109016
0.0441468
-0.0383894
0.0563617
-0.0179723
0.00141834
-0.00141834
-0.00609113
-0.00691627
0.0130074
-0.0109404
-0.0551508
0.0603737
-0.00522327
-0.00830815
-0.0576574
0.0659657
-0.0367486
0.00827458
0.028474
0.00361148
0.0159167
-0.0195282
-0.00325167
-0.0161478
0.0193995
0.00275118
-0.00275119
0.0136384
-0.0384411
0.0248028
0.00454911
0.0067396
-0.0112887
0.0102882
-0.00185918
-0.00842904
-0.0105736
0.0855271
-0.0749535
0.0653888
-0.0759624
0.0514373
0.0223878
-0.0738251
0.0670116
-0.0155742
0.00724564
-0.0030154
-0.00423024
-0.00407367
0.0463662
-0.0422925
0.0613151
0.00930543
0.0098152
0.0191069
0.00610426
-0.0244256
0.0183213
-0.0197902
0.019522
0.000268225
-0.00788415
-0.011906
0.0568112
-0.054585
-0.0022263
-0.0470012
-0.00760477
0.054606
-0.00686424
0.00321163
0.00365261
0.00882728
-0.00663493
-0.00219234
-0.0106156
0.033579
-0.0229634
-0.0523873
0.0440791
0.0103512
-0.0110717
0.00370072
-0.00659135
0.00289064
-0.0172314
-0.037817
-0.00100597
-0.00443402
0.00543999
-0.0216591
0.013775
0.0118997
0.00336175
-0.0152615
0.00601795
-0.0129342
-0.627809
0.302074
-0.0217969
0.0111813
-0.00285323
-0.00126543
0.00411864
0.0220286
-0.0216038
-0.000424783
0.00829555
0.013733
-0.0110703
-0.0107266
0.00419743
-0.0152677
0.0068612
-0.0175878
0.00571387
-0.00752776
0.00181389
-0.00222851
-0.0037033
0.00593181
0.000405273
0.00966922
-0.0100745
0.0479865
-0.0370848
0.00959709
-0.0492571
0.026696
0.0225612
-0.0149934
0.0189062
-0.00391285
-0.00327177
0.0162792
0.0113962
-0.00911665
-0.00227957
0.0449591
-0.035362
0.0466368
-0.00167767
-0.0465133
0.0111512
0.0580947
-0.675609
0.617514
0.00505501
0.00377227
-0.00316561
-0.00369863
0.0636738
-0.341701
0.278027
0.171813
-0.502464
0.330651
-0.000414119
-0.00596702
0.00638114
-0.00310577
0.00607676
-0.00297099
0.024892
-0.0165964
-0.00977722
0.0289669
-0.0191897
-0.0282864
0.0109689
0.0173176
-0.0182231
0.0287149
-0.0104918
-0.0465095
0.0396838
-0.0062896
-0.00465084
-0.0167903
0.0236515
-0.00619578
0.00768776
-0.00520045
0.00680886
0.0144966
-0.0345615
0.0490021
-0.0144407
-0.0548966
0.0203351
-0.00224978
0.020035
-0.0177852
0.00626109
-0.0192067
0.0129456
-0.0621906
-0.0501465
0.262828
-0.585556
0.322728
0.000603656
0.0537959
-0.0543996
0.0574149
0.044573
-0.372806
-0.126113
-0.0119192
-0.00880981
0.00772299
0.0114013
-0.0191243
-0.143151
0.203198
-0.0600472
-0.00114355
0.00114356
0.0871154
-0.0328776
-0.0542377
-0.00559214
0.00852054
-0.00292841
-0.0502799
-0.0266927
0.0769727
0.00863745
0.00585917
0.0116445
-0.006663
-0.00498154
0.00668409
0.0128379
0.0129452
0.0026739
0.010164
0.185898
0.118612
-0.30451
0.0199146
0.00613399
-0.0260486
0.00193774
-0.013857
0.464598
0.124513
-0.589112
-0.749142
-0.133446
-0.004257
-0.0217916
0.0369534
-0.00390581
0.0326964
0.0277381
-0.0223632
-0.00537487
0.0128593
-0.0391253
-0.00770481
0.00141521
-0.00863892
0.000934115
-0.387394
0.48338
-0.0959853
-0.507412
0.497662
0.0228578
0.0335039
0.0401754
0.0534974
0.0129819
-0.0664793
-0.0504412
0.0399494
-0.0014391
0.0409746
-0.0010252
-0.00631874
0.047236
-0.0409172
-0.0533199
-0.00589488
0.00425641
0.00163847
-0.0748606
0.0245807
-0.0067203
0.0500336
0.0104376
0.00693528
-0.0173729
-0.00818784
-0.0134159
-0.00648066
-0.635878
0.497061
0.138818
-0.0351547
0.0257871
0.00936759
0.00115195
-0.02347
0.241983
0.236577
-0.47856
0.341061
-0.0990777
0.553746
-0.00812943
-0.000987225
0.00160427
0.00979703
-0.00652516
0.0308939
-0.0323199
0.033987
-0.0288156
-0.0611354
0.328631
-0.154963
-0.173668
0.0048065
0.00483541
-0.0096419
-0.00586378
0.00877483
-0.00291104
-0.00631135
-0.0137739
0.0200853
0.00946606
-0.0157774
-0.0117675
0.0052423
0.0010917
-0.0128592
0.0113553
-0.00611298
0.0292655
0.0227266
-0.0519921
0.032223
-0.00154327
-0.0306797
-0.0114746
-0.0496608
0.0375373
0.0010452
0.0260627
0.0089276
-0.00143675
-0.00749085
0.00259825
0.00632935
-0.0229303
-0.0199495
0.0428798
0.0135627
0.0173996
-0.0309623
-0.00254981
0.00342849
-0.00653426
-0.00575483
-0.0440817
0.0426868
-0.0227772
0.0056444
-0.00802216
0.00237777
-0.00760664
0.0062276
0.00137904
-0.0263065
0.0122086
-0.00638987
0.0324526
0.0147179
-0.0170245
0.00230661
0.0207358
-0.0194218
0.924167
0.210485
0.592585
-0.441606
-0.186298
-0.0101744
-0.00685009
0.00526311
-0.0154375
0.00860896
-0.0154591
-0.0497682
0.0111111
0.038657
0.000532015
-0.0569996
0.0564676
0.00844677
0.0190854
-0.0275321
-0.0216541
-0.00930815
0.0391279
0.00810811
-0.0099269
-0.0348041
0.029201
0.00731988
-0.0018256
-0.00549428
0.00612496
0.00119493
-0.00705302
0.00522743
0.0198792
-0.0162677
-0.530928
0.591564
-0.512817
0.594324
-0.0815072
-0.00431688
-0.00730037
0.0116172
0.0260305
-0.0857687
0.0322927
-0.0186544
0.00413657
0.0279825
0.0122251
0.00851074
0.0173608
-0.00513571
-0.0147763
0.023287
0.0808024
-0.0707895
-0.010013
0.00333269
-0.0197301
0.0163974
0.0208673
-0.00800802
0.0242
0.324866
-0.33825
0.0133837
0.00217146
0.00947308
-0.00814194
-0.000496982
-0.00597048
0.0089761
0.497726
0.946287
-1.44401
-0.000760921
0.000760937
-0.569755
-0.0674869
0.637242
-0.819171
1.3169
-0.00134921
9.21874e-05
0.467479
-0.409384
-1.0647
1.0647
0.130683
0.945292
-0.885574
0.65401
0.231564
-0.407611
-0.477963
1.23877
-0.26122
-0.977554
0.116448
-0.0602342
-0.0562137
-0.528285
-0.107594
-0.103158
-0.425126
-0.831983
0.928274
0.18504
0.313395
-0.498435
0.370938
0.0433818
0.649061
-0.692443
0.483343
-0.439961
0.0717965
-0.0182991
0.602049
-0.621471
0.536984
0.0650656
0.13686
-0.110829
0.484271
-0.236095
-0.248176
0.196489
0.287782
0.00365856
-0.00397306
0.000314478
-1.01626
-0.144916
0.576533
-0.431617
-0.000516514
0.000516516
0.400034
-0.944557
0.544522
-0.554141
0.60213
-0.308441
0.594174
0.0813681
0.0554915
-0.608239
-0.218306
0.826546
-0.0617948
-0.022521
0.0843158
0.0100015
-0.15685
0.00857115
0.148279
0.644379
-0.700479
0.0922394
-0.328361
-0.372118
-0.69214
0.363779
-0.918359
0.0463335
-0.998054
0.751198
-0.163582
-0.439901
-0.235707
-0.638843
0.412805
-0.130146
0.353233
-0.895053
0.504825
-0.609756
-0.285298
0.000542996
-0.000542992
0.00112434
-0.00386615
0.0027418
1.03603
-0.149434
-0.0111272
-0.670783
0.68191
0.944296
-0.618278
-0.326018
0.334541
0.219199
-0.700591
0.661099
-0.0884068
-0.572692
0.880931
0.73841
-0.314315
0.714349
0.0307222
0.0752953
0.0176379
-0.186735
0.227701
-0.0409664
0.219499
0.42488
-1.15302
1.15302
-0.489854
-0.202286
-0.754059
-0.273451
0.834322
-0.329497
0.0802635
0.273189
0.19429
-0.00387652
0.00225335
0.00162316
0.793081
-0.530253
0.303227
-0.0250731
-0.0892466
-0.00858585
0.00261537
0.811879
-0.956795
-0.455386
2.01328
1.03772
-0.541753
0.359456
0.182297
-0.268564
-0.32572
-0.332354
0.658074
0.0367775
0.247109
-1.4997
0.86072
-0.613611
-0.0833906
-0.255548
0.338939
-0.270125
1.20152
-0.0589455
0.0417141
-0.0365577
-0.620976
-0.211007
1.07447
0.248957
-0.579488
0.330531
-0.830649
-0.581692
-0.801164
0.254914
-1.05608
-0.00985972
-0.0131825
0.0538291
0.0633985
-0.943392
0.71246
-0.000368971
0.000911971
1.22227
-0.682546
1.90481
0.224982
1.03847
-0.813492
0.935316
-0.925394
-0.0908651
-0.290825
-0.288663
0.643834
-0.018975
0.00419869
-0.0166684
-0.0277789
0.0111105
0.110676
-0.64766
0.723521
-0.0758616
0.298395
-0.6056
0.984667
-0.379067
-0.0290671
0.782812
1.04343
-1.18906
0.00628246
-0.631305
0.266703
-0.142268
-0.00358685
0.0268739
0.0432825
0.184419
-0.0675467
1.27195
0.211083
0.849101
0.0447955
-0.0524003
-0.00978945
0.0103995
-0.0996461
-0.0753691
-0.142916
-0.0226375
-0.0621623
0.418965
-0.494827
0.51048
-0.0915152
0.349239
0.161241
0.421816
-1.34171
0.158185
0.0399376
-0.487891
-0.158593
-0.447953
0.577005
0.0405088
-0.447519
0.288926
-0.0987335
-0.348785
-0.354282
1.13964
0.130846
0.826654
-0.695808
0.565434
-0.000529996
-0.000230912
0.0047829
-0.78186
-0.45745
-0.590896
0.0225157
1.39445
0.711907
-0.757658
-0.0078367
0.00940807
-0.00157137
0.00287569
-0.0107124
0.00133949
0.00470221
-0.0060417
-0.00536304
-0.00686911
0.0122322
-0.150692
0.264919
-0.114227
0.00497568
-0.00419544
-0.000780238
0.00746597
-0.00188206
-0.00558391
-0.00630094
0.00392264
0.0023783
-0.00440077
0.00385565
0.000545125
-0.0142698
0.0142926
-2.27892e-05
0.0116188
-0.00230264
-0.00931618
0.00284706
0.00877176
-0.0164093
0.00482505
0.0115843
0.00692724
-0.00268572
-0.00424152
0.0027302
0.00419704
-0.0133213
0.00496413
0.00835714
0.00539467
-0.0187159
-0.00353498
-0.00438047
0.00791545
-0.00860182
-0.0016139
0.0102157
0.00189551
0.00803506
-0.00993056
0.00426201
0.00218704
-0.00644904
0.00463684
-0.0077454
0.00310856
0.00854387
-0.00962703
0.00108316
0.00171757
0.0068263
-0.00753965
0.00492777
0.00261188
-0.00475656
-0.00278309
0.00247932
-0.00715607
0.00467676
-0.00160334
0.00998584
-0.0083825
-0.00230761
0.00414262
-0.00183501
-0.00330077
0.00198165
0.00131912
-0.0033848
-0.00283119
0.006216
0.00481537
-0.00820018
-0.00285902
0.0101443
-0.00728526
-0.00754958
0.00225254
0.00529704
-0.00165247
-0.00589711
0.00291926
-0.00687822
0.00395896
0.00197544
0.00417841
-0.00615384
0.00758399
-0.00769705
0.000113054
0.00326717
-0.00277481
-0.000492365
0.00369527
0.00319107
-0.00688634
0.00363075
-0.00479348
0.00116274
-0.00648118
0.0029462
0.00732064
0.000514207
-0.00783484
0.00412795
0.00319269
0.00350749
0.00766486
-0.0111723
0.00853865
-0.00998925
0.0014506
0.0101335
-0.000930036
-0.00920343
-0.00891648
0.000448841
0.00846766
-0.00807662
-0.000767751
0.00884439
-0.0044161
0.00689541
0.00805936
-0.0117152
0.00365586
-0.0132063
-0.0010635
-0.00719752
-0.00600876
-0.0246002
0.0197916
0.00480863
-0.00684386
-0.333965
0.340809
-0.00897247
0.00454438
0.00442809
-0.00597828
0.00744114
-0.00146286
0.185516
-0.19236
-0.00469045
-0.00540135
0.0100918
-0.00960241
0.00154939
0.00805302
-0.00257199
-0.00703043
0.0196169
-0.00579489
-0.013822
-0.00716227
0.0267791
0.0080311
-0.0023142
-0.00571689
0.00304883
0.00498227
-0.00716447
0.0113049
-0.00414039
0.0055242
-0.00810129
0.0025771
0.00848685
-0.00575665
-0.00115926
0.0118306
-0.0106714
0.00473636
-0.00613389
0.00139752
0.00933514
-0.0124778
0.00314262
0.00866314
-0.00866311
0.00211394
0.0156917
-0.0178057
-0.0102859
0.00559324
0.00469264
-0.00926194
0.00332773
0.00593422
0.00843253
-0.00843252
0.00815477
-0.00815477
0.000528132
0.00784999
-0.00837812
0.0333033
-0.0144953
-0.0188082
-0.00406471
-0.0061738
0.0102385
0.0063472
-0.00580697
-0.00054024
-0.0220974
0.00579111
0.0163062
0.0108421
-0.0329395
0.00362604
0.00476903
-0.00839507
0.0045231
0.00163824
-0.0025851
-0.00446791
-0.00351563
0.0154154
-0.00426906
-0.00534132
0.00961037
0.0053155
-0.00321302
-0.00210248
-0.0054585
-0.00194165
0.00740014
-0.011619
0.00465607
0.00696292
-0.0112124
0.00751191
0.00370044
-0.00438221
0.00706934
-0.00268713
0.000324115
-0.00470633
0.0121921
-0.00963539
-0.00255672
0.00975606
0.00145353
-0.0112096
-0.00875223
-0.00116804
0.00992027
-0.00514736
-0.00360487
-0.00159424
-0.00707889
0.00867313
0.00214672
-0.00692344
0.00477672
-0.000413406
0.00587855
-0.00546514
-0.000938048
0.00577525
-0.00483719
-0.0039761
-0.00418332
0.00815941
0.00911595
-0.00466658
-0.00444938
-0.0119285
-0.00251034
0.0144388
0.0125212
-0.00663079
-0.00589045
0.00538078
0.00647749
-0.0118583
-0.00684744
0.0068747
-2.72572e-05
-0.00617099
0.0068205
-0.000649512
-0.00764976
0.0118351
-0.00418531
0.00723132
-0.000179557
-0.00705177
0.00816577
0.000237376
-0.00840314
0.00964405
-0.00281343
-0.00683062
0.00171624
-0.00698134
0.0052651
0.00196887
-0.00697107
0.0050022
0.00565051
-0.00163019
0.00660372
-0.00497353
-0.00795364
0.00085504
0.0070986
-0.0182856
0.0256257
-0.0073401
0.00180963
-0.00536595
0.00355632
0.00319526
0.00479613
-0.00799139
-0.00664896
-0.00390507
0.010554
0.00297936
-0.00962832
0.00596383
-0.000419893
-0.00554393
0.00807762
-0.00211379
0.0210029
0.0123004
0.00489793
0.00414886
-0.00904678
0.0106659
-0.0103638
-0.000302049
0.0100079
-0.0100079
0.0058988
0.00350451
-0.00940331
-0.00553368
-0.00201071
0.00754439
0.0146046
0.0243792
-0.0389838
-0.00285312
0.00830347
-0.00545035
0.00143352
0.00644408
-0.0078776
0.0159834
-0.0136066
-0.00237671
-0.00440185
0.00114804
0.00325382
0.00799475
0.00276081
-0.0107556
-0.00302704
0.00654454
-0.0035175
0.00716634
0.00508118
-0.0122475
0.00111032
0.00627245
-0.00738277
-0.00300549
-0.00627526
0.00928075
0.000559881
0.00679235
-0.00735223
-0.0273766
0.0450834
-0.0177068
0.034527
-0.0619036
-0.00869466
0.00160902
0.00708564
-0.00466368
-0.00403098
-0.00933286
-0.00210528
0.0114381
0.00808224
-0.00452753
-0.00355471
-0.0116261
0.00662675
0.00499931
-0.00715628
0.0107532
-0.00359696
0.001574
-0.00724062
0.00566661
-0.0030976
-0.00300595
0.00610355
-0.00848723
0.00137429
0.00711294
0.00146892
0.00193211
-0.00340103
-0.00293203
-0.00146873
-0.00225412
-0.00614328
0.0083974
0.00977373
-0.00870088
-0.00107285
0.00948459
-0.0110788
0.0109113
-0.00831304
0.000520473
0.00437717
-0.00489764
0.00606049
-0.00554002
-0.0254759
0.033159
-0.00768303
-0.0199908
-0.00548512
0.00235677
0.00579404
-0.00815081
-0.00914637
0.0092355
-8.91229e-05
-0.00535022
-0.00379615
0.0100925
-0.00701446
-0.00307805
0.00647055
-0.0112271
0.000961416
-0.00819926
0.00723784
-0.00403855
0.00754603
0.00626538
-0.0103039
-0.00837577
-0.00470951
0.0130853
-0.00716371
-0.00405471
0.0112184
-0.0125345
0.00545562
-0.00782143
0.00384534
0.0014351
0.00406847
-0.00550357
0.00507926
-0.00559106
0.000511801
0.00296284
0.00211642
-0.00110191
0.00816321
-0.0070613
0.00564861
-0.00730109
0.0283193
-0.00171823
-0.0266011
0.0436865
-0.0153672
-0.0325718
-0.00586929
0.0101668
-0.00881623
-0.00135061
0.00716135
0.00793766
-0.00570023
-0.00223743
0.00163672
-0.0101292
0.00442901
0.00165521
-0.0166486
0.00565655
0.00337381
-0.00903036
-0.00790073
0.00939322
-0.00149249
-0.00616002
-0.00151517
0.00767519
0.00324788
0.0069165
-0.0101644
0.00653401
-0.00529216
-0.00124184
0.00356108
0.00222754
-0.00578862
-0.0211014
-0.0273117
0.0484131
0.00700377
-0.00985689
-0.00558789
0.0112349
-0.005647
-0.00829006
0.00182999
0.00646007
-0.000360774
-0.00950024
0.00986101
0.0101071
0.00103839
-0.0111455
0.0038665
0.00343533
-0.00730183
0.00789197
-0.010394
0.00250203
0.00620629
0.000724553
-0.00693085
0.130266
-0.0480956
-0.0821707
0.000107325
0.00953673
0.00827309
0.0106016
0.00465038
-0.015252
-0.00522983
0.0111698
-0.00593999
0.00199069
0.00584082
-0.00783151
-0.00790138
0.00334854
0.00455284
-0.000924037
-0.0059234
-0.00864041
0.018519
-0.00987861
-0.00341103
-0.00509915
0.00851018
-0.00194334
0.0100413
-0.00809791
0.00469142
0.00801067
-0.0127021
0.00836523
-0.00948084
0.0011156
0.0108793
-0.0080322
0.0101814
-0.00715146
-0.00302998
0.00275357
-0.00971846
0.00696488
-0.0043463
0.00709988
0.000583936
0.00670809
-0.00729202
0.0105633
-0.00587187
0.00530813
0.00436912
-0.00967725
0.00588109
0.00248414
-0.00379867
0.00967976
0.0104948
-0.00676934
0.00981817
0.00718917
-0.00426991
-0.00169154
0.00885788
-0.0106973
0.00783833
-0.0213887
0.00525012
0.0161386
-0.013685
-0.00770378
-0.0107041
0.00804585
0.00265825
-0.00985592
-0.000848188
0.000179089
0.00533352
-0.00551261
0.00206955
-0.00668556
0.00461601
0.0337625
0.0226405
-0.0564029
-0.0340547
-0.019461
-0.000292261
0.00251789
0.0032065
-0.00572438
0.00454625
0.00042943
-0.00394572
0.0125475
-0.00860178
0.00158679
-0.00737323
0.00578644
-0.010852
0.00698137
0.00387061
-0.00667942
0.0023802
0.00429923
-0.00581736
0.00719931
-0.00138195
0.00440323
0.0133912
-0.0177944
0.0097979
0.00559488
0.00779628
-0.00616614
0.0108323
-0.00466618
-0.00769524
-0.00334527
0.0110405
-0.00430935
-0.00441607
0.00872543
-0.00214916
-0.00640267
0.00855182
0.0020142
-0.00883895
0.00682475
0.00775309
-0.0105665
0.0162766
-0.00506458
-0.011212
0.00955051
0.00483495
-0.0143855
0.00887588
-0.0336551
0.0247793
0.00121642
-0.00961173
0.00839531
-0.0053108
0.0114413
-0.0061305
0.00901265
-0.000987547
-0.0080251
-0.00117761
-0.00841914
0.00959674
0.00893674
-0.00758458
-0.00135214
0.000860131
0.000937873
0.00281241
-0.00375029
0.0132311
-0.00368061
0.00625638
0.00697475
0.0125959
0.00172602
-0.00681792
0.0050919
-0.00616753
0.00689104
-0.000723506
-0.00199381
-0.00417372
-0.000568948
-0.00872441
0.00929335
0.00914607
-0.00431112
-0.00172413
-0.0102001
0.0119243
-0.010417
0.00869284
-0.00504752
0.00949389
-0.00444638
-0.00680365
-0.00298189
0.00978554
-0.0173543
0.011964
0.00539033
0.0110979
-0.0143926
0.00329475
-0.0395254
-0.0167329
0.075003
0.0552633
0.0112277
-0.00271988
-0.00850786
0.0186746
-0.0125704
0.00923829
0.00929182
-0.0185301
0.0103503
-0.00799355
0.0021908
0.00815952
-0.00663701
0.0088278
-0.00449663
-0.00731476
0.0118114
-0.00335758
-0.00300547
0.00636305
-0.0372491
0.0206187
0.0166304
0.0320328
-0.0291135
-0.00291927
-0.00184213
-0.00205331
0.00389544
-0.0356217
0.0232516
0.0123701
0.00598504
-0.0260334
0.0200484
0.000198409
-0.0112493
0.0110509
0.00166075
-0.0120897
0.010429
-0.0133562
0.00629347
0.00706271
-0.00410399
0.00741121
-0.00330722
-0.00540726
0.010788
0.00711399
-0.00205046
0.00645254
-0.00440208
0.00244329
0.00368194
-0.00612523
-0.00731563
-0.00189358
0.00920921
0.0035236
-0.00629969
0.0027761
-0.00190392
0.0122058
-0.0103019
0.00689243
0.00722433
-0.0141168
-0.00210991
-0.00813604
0.010246
0.00535711
-0.00963799
0.00428088
0.00519808
-0.00455064
-0.000647438
-0.00191448
-0.00472045
0.00328359
-0.00577575
0.00536235
-0.00807866
0.00750971
-0.00806904
0.000809328
0.00725971
-0.00857251
0.0090592
-0.000486691
-0.00655831
-0.00386924
-0.00866527
-0.011033
-0.00273071
-0.00746942
-0.0103805
-0.00129784
-0.00617159
0.00517815
-0.00682057
0.00164242
0.00724771
0.000660681
-0.00485612
0.00867767
-0.0088656
0.000187928
0.00212062
0.00655705
-0.0112058
0.00317657
0.00802923
-0.0057265
-0.00511762
0.0108441
-0.0202574
0.0117396
0.00851775
-0.013282
-0.00697536
-0.00411031
0.0105746
-0.0064643
0.00496109
0.00655387
-0.011515
0.00166021
-0.00863777
0.00697755
0.0257353
0.00784376
0.0317203
0.143045
-0.239031
-0.19092
-0.00188845
-0.00641611
0.00830457
-0.00581834
0.00392989
-0.00598649
0.0118433
-0.00585682
-0.00183509
0.00370447
-0.00186938
0.017305
-0.0139771
-0.00332787
0.000820644
-0.00563857
-0.00901059
-0.0343967
0.0434073
0.0328345
-0.0418451
0.0109776
-0.0193363
0.00835867
0.00518403
0.00582159
-0.0110056
0.0191843
-0.0119263
-0.00725807
-0.0105237
0.017214
-0.0066903
-0.0121506
0.0267365
-0.0145859
0.0160273
0.0321016
-0.00536513
0.00372921
0.00418052
-0.00790972
0.0188323
0.0222407
0.0393421
-0.0211064
-0.0182356
0.00930412
-0.0113011
0.00199694
-0.00866538
0.00971592
-0.00105055
-0.0235859
-0.00244744
-0.0124046
-0.0188189
0.0163715
0.0168565
-0.0138704
-0.0029861
-0.0293049
-0.0351764
0.0644813
-0.063863
0.0365571
0.0273059
0.0163347
0.000345772
-0.0166805
-0.00744059
0.00402333
0.00341727
0.00293812
-0.00488988
0.00195176
0.00298878
0.00242293
-0.00541171
0.0059269
0.00546338
-0.00136087
-0.00410252
0.00339325
-0.0043313
-0.00328617
0.00385703
-0.00734367
0.00348664
0.00706866
-0.0100782
0.00880876
0.00126947
-0.00626814
-0.00381009
-0.00253274
-0.00647272
0.00900546
0.000738333
0.00829734
-0.00903568
0.00941968
-0.00868135
-0.00169767
0.0111823
0.00921363
0.000129746
0.00491002
-0.00503977
-0.00426697
0.00439673
0.0116342
0.003007
-0.0146412
-0.00447197
-0.0138136
-0.0108066
-0.0019512
-0.00751747
0.00946867
0.00575945
-0.00771064
-0.00126994
-0.00624754
0.0013746
-0.0105441
0.00916948
0.0042296
0.00563286
-0.00986246
0.00996495
-0.00460785
-0.00384117
0.00406876
-0.000227588
0.00977389
-0.00426567
-0.00550822
-0.00749751
0.00749751
-0.0161167
-0.0216778
0.0377945
-0.00747948
0.00690716
0.000572327
-0.00398588
-0.00183245
0.0261218
0.0032705
-0.0293923
0.0130493
0.0130725
-0.022105
0.0253755
0.00619525
-0.0041011
-0.00209415
-0.00168521
-0.0051586
0.0068438
0.00451004
-0.00776482
-0.00385417
0.0108293
0.00602724
-0.000968069
0.0117974
-0.00920541
0.0152327
0.010669
0.000643802
-0.0113128
0.0052437
0.00542529
-0.0136516
0.0142954
-0.00540254
0.00698933
0.00551935
0.00529972
-0.0108191
-0.005693
-0.00381396
0.00947051
-0.00178253
0.00430986
-0.00252733
0.00293947
-0.00672201
0.00378254
0.0152991
0.00131635
-0.0166155
0.00359738
-0.0112234
0.00762606
-0.00331546
-0.00315567
0.00647112
-0.00610097
0.00595342
0.000147552
-0.0490006
0.067226
-0.0182254
0.0057843
-0.00984901
0.00916286
-0.0029124
-0.00625046
0.00146763
0.0526873
-0.0435066
-0.00918076
0.00374408
0.00230283
-0.00604691
0.00528762
-0.00154354
0.00629735
-0.00399452
0.0084655
-0.0221504
-0.044791
0.0260353
0.0187557
0.0379185
-0.0151578
-0.0227608
-0.0208042
0.0234782
-0.00267393
0.0201585
-0.000386606
-0.0197719
0.00885908
0.00543349
0.0105198
-0.00707506
0.0125086
-0.0273117
0.0124135
0.0148983
0.00857756
-0.00945358
0.000876022
0.00330036
0.0052772
-0.00641154
-0.00390782
0.0103194
0.00551272
0.00581317
-0.00961184
-0.00225244
-0.00564984
0.00790228
-0.00952267
0.00481893
0.00470374
-0.0117751
0.00269277
-0.0106049
0.00791211
-0.00940229
0.00705211
0.00235019
-0.00670953
0.00390007
-0.00652995
0.00262987
0.00251075
-0.0102168
0.007706
-0.00350441
0.00350441
-0.00105725
0.0076872
-0.00662995
0.00234167
0.00586992
-0.00821159
0.0188617
0.0204803
0.00160166
0.00866206
-0.0102637
-0.00334732
0.00334731
0.00380216
0.00341187
-0.00217824
0.0059804
-0.00896813
0.0103427
0.000947536
-0.00598851
0.00504097
0.00598565
-0.0012592
-0.00472645
0.00693319
0.00371636
0.00327005
-0.00698641
-0.00329542
0.00690243
-0.00360701
-0.00558573
0.00571123
-0.000125503
0.00604259
-9.72466e-05
-0.00594534
-0.00618579
-0.00492168
0.0111075
-0.0100909
0.00175805
0.0047566
-0.00651464
-0.00937295
0.0219602
-0.0125872
0.00148249
0.00674025
-0.00822274
0.00797261
-0.00649013
0.00259698
-0.00259699
0.00777895
0.00311882
-0.0108978
0.00352171
0.00425724
-0.00446537
0.00758419
0.0099976
-0.00787698
0.00210755
0.00799953
0.0101669
0.00763875
0.00975641
-0.00627024
-0.00348617
0.00067331
-0.00857769
0.00790439
0.00822867
-0.00755536
-0.00143773
0.00771536
-0.00627763
0.00491059
-0.00634832
0.0049216
0.00104599
-0.00596759
0.0183631
-0.0158198
-0.0025433
-0.0078394
0.0197197
-0.0118803
0.0282444
-0.0107695
-0.0174748
0.0262426
0.00200181
0.021332
-0.00872077
0.00198117
-1.0839e-05
0.00727305
-0.00726221
0.00656427
-0.00640728
-0.00015699
0.0110831
-0.00772138
0.00234966
-0.0107254
0.0134328
0.00248137
-0.00248138
0.00453043
-0.00543895
0.000908519
-0.00678983
0.00893655
0.00825352
-0.0108255
0.0227185
-0.00811386
0.00667382
-0.0241486
-0.0322625
0.00918914
-0.00255616
-0.00663298
0.00255214
-0.00889998
-0.000266124
0.00916611
-0.00942608
0.00964582
-0.000219714
0.0314521
0.00205183
-0.00529085
0.00529084
-0.00576103
0.00608515
-0.0065789
0.0049487
-0.0325879
-0.00158016
0.0341681
-0.0131136
-0.0194743
0.0340026
-0.0355827
0.00585966
-0.0058597
-0.0184633
-0.00796246
0.0264258
-0.0252263
0.0166546
0.0085717
0.00174641
-0.00174641
0.00344793
-0.00344796
0.00574822
-0.000932863
0.00339348
0.00266167
-0.00605515
0.00482858
0.0044713
0.00556449
0.00204802
-0.00761251
0.00162963
0.00577779
-0.00740742
0.00122242
0.00695722
-0.00817964
-0.0387562
0.0202929
0.00379985
0.00342488
-0.00722473
0.0059075
-0.00706824
0.00116075
-0.00389482
0.00637133
-0.00247651
0.00201268
0.00711475
-0.00605955
-0.0010552
0.00331937
0.00379538
-0.00662433
0.000208227
-0.00241604
0.00241602
-0.0230863
0.0409628
-0.0178765
-0.0336979
0.0102333
0.0234646
-0.0297623
-0.00393557
0.0357711
-0.0255377
0.00653825
-0.00188218
0.00107975
-0.0075755
-0.0041438
0.0117193
-0.0115212
0.00869535
-0.0128392
0.0208243
-0.0149823
-0.00584195
-0.000834838
-0.0321351
0.0171527
0.00732961
-0.00376852
-0.00255732
0.00255731
0.0082954
-0.0153705
-0.0100058
-0.00262928
0.0126351
0.0263865
-0.0328873
0.00650075
-0.0103901
0.0367766
-0.00258923
0.00880046
-0.00621123
-0.0100698
0.00748056
-0.00352457
0.00698796
-0.00346338
0.00362986
-0.00581223
0.00218238
-0.0121896
0.012388
-0.00761076
0.00155121
-0.00270017
-0.00693601
0.00130941
0.00789305
-0.00920246
0.00751362
-0.00620421
-0.0151502
0.0169064
-0.00175623
0.00652077
-0.0151599
0.00863915
0.00721207
-0.0101245
-0.0023479
0.00234789
0.00122558
-0.00122558
0.0166809
-0.0135825
-0.00309835
0.00732483
-0.00563098
-0.00169384
0.00810344
-0.000778608
-0.00792257
0.00174877
-0.00373437
-0.00418821
-0.00711502
0.00379956
-0.00422592
-0.0075492
-0.00957614
-2.00474e-05
-0.00444706
0.00446711
-0.0372272
0.016279
0.0209482
-0.0271566
-0.00846514
0.00068453
-0.00650189
0.00652557
-0.00048298
-0.00356172
-0.00550994
0.00907166
0.00367821
0.010166
-0.0138442
0.00759744
0.00317608
-0.0107735
0.00380399
-0.00613093
0.00232695
-0.000815854
0.00461984
-0.00299968
0.00754878
0.00728855
-0.000554558
0.0144159
-0.0138613
-0.0157047
-0.00194768
0.00194768
0.000240353
-0.00218803
-0.0129398
0.00787519
-0.00543297
0.00659031
-0.00115734
-0.000213293
-0.00521967
0.00185266
-0.00185266
0.000176286
-0.0056091
0.00543282
-0.00438922
0.00690711
0.00689988
-0.00731786
0.000417975
-0.0276642
0.0321943