/*--------------------------------*- C++ -*----------------------------------*\
  =========                 |
  \\      /  F ield         | OpenFOAM: The Open Source CFD Toolbox
   \\    /   O peration     | Website:  https://openfoam.org
    \\  /    A nd           | Version:  6
     \\/     M anipulation  |
\*---------------------------------------------------------------------------*/
FoamFile
{
    version     2.0;
    format      ascii;
    class       volVectorField;
    location    "1200";
    object      U;
}
// * * * * * * * * * * * * * * * * * * * * * * * * * * * * * * * * * * * * * //

dimensions      [0 1 -1 0 0 0 0];

internalField   nonuniform List<vector> 
29874
(
(7.52992 0.0630377 1.07295e-16)
(5.39118 0.028277 -9.8866e-17)
(5.42386 -0.121065 1.98156e-16)
(7.10957 -0.0802078 -1.16676e-16)
(7.8105 -0.117979 0)
(7.42896 0.00481537 -9.70071e-17)
(4.77966 0.094951 5.87071e-18)
(7.12411 0.0171843 2.34698e-18)
(7.44875 -0.00423645 -1.31658e-17)
(7.19172 0.211776 -1.63034e-17)
(7.20422 -0.115483 0)
(7.23506 0.103602 -3.56007e-17)
(4.44714 -0.0539011 9.23228e-17)
(8.27094 0.0493307 0)
(6.72786 0.203407 1.06204e-16)
(6.61043 0.137592 0)
(4.26376 -0.0201043 0)
(7.80577 0.212516 -1.38829e-16)
(4.96169 -0.0407544 -1.43256e-16)
(7.99513 -0.0696037 -3.4747e-18)
(7.1189 -0.0228882 3.51285e-17)
(7.07108 -0.0257577 8.12244e-18)
(7.03538 0.0585499 -9.39161e-17)
(7.5241 0.0358272 0)
(5.75836 0.294088 0)
(7.77124 -0.00850073 -2.63544e-17)
(7.96968 -0.0417582 -8.85248e-17)
(5.06906 0.120097 1.21257e-16)
(5.32634 0.123173 2.28678e-17)
(4.94386 -0.11774 4.65731e-17)
(8.0647 -0.0923785 -2.74257e-17)
(5.33418 -0.0985142 -2.64747e-16)
(7.85291 0.0562472 0)
(5.18783 -0.0332589 -8.15889e-17)
(7.3986 0.129955 3.33571e-17)
(5.48589 0.109085 -1.41278e-17)
(7.04526 -0.004441 0)
(7.28933 0.313476 -8.11219e-18)
(7.51624 -0.101245 -6.25165e-17)
(5.35337 0.0240696 0)
(7.0004 0.010336 -3.967e-17)
(7.02988 -0.0196572 8.09192e-17)
(7.30985 0.00763462 0)
(5.62976 0.045561 -8.89652e-18)
(8.02352 -0.131174 8.06101e-17)
(7.44051 0.0495099 0)
(4.74765 -0.150042 0)
(8.48677 0.0413273 0)
(7.25765 -0.0598068 4.32497e-18)
(7.17233 -0.112925 -5.99926e-17)
(4.48846 0.140879 -9.34778e-17)
(7.88193 -0.0979567 0)
(6.77742 -0.000103989 -4.44417e-17)
(6.60549 0.0708745 4.03416e-17)
(7.67373 0.158573 -1.84116e-17)
(7.71808 -0.00827779 5.20176e-17)
(4.68691 -0.0785557 0)
(8.14614 0.0313605 0)
(7.1229 -0.0635939 0)
(7.04359 0.0835103 -7.70054e-18)
(7.2724 -0.129459 1.09666e-18)
(7.23744 0.0149977 -7.33214e-17)
(7.22279 -0.233311 -1.11059e-18)
(7.48616 0.0144586 0)
(5.8131 0.0536281 -4.54851e-17)
(7.47041 0.0311576 -3.64139e-17)
(7.75571 0.144174 -1.85129e-20)
(7.60933 0.00897126 7.2127e-17)
(7.64721 -0.0917004 3.85875e-17)
(7.49667 -0.0796454 3.77226e-17)
(8.25154 -0.13896 3.89503e-17)
(7.61463 0.0174023 5.14063e-17)
(7.53144 0.10399 -3.23164e-16)
(5.65336 -0.133053 4.00698e-16)
(7.04048 -0.128591 3.94894e-17)
(8.07143 0.122817 0)
(7.80846 -0.107912 -1.66853e-17)
(8.00873 -0.0976532 1.68192e-17)
(5.00208 0.112208 6.42333e-16)
(7.36201 0.099189 -1.78558e-16)
(5.37837 -0.0939442 -9.08842e-17)
(7.11551 -0.147742 1.08219e-18)
(6.96928 0.152171 0)
(7.43207 0.190208 -3.6225e-17)
(4.67258 -0.375697 0)
(5.12604 -0.228893 -3.90565e-17)
(7.36238 0.00766346 -7.30449e-19)
(7.03482 0.0396756 2.05228e-17)
(7.94176 -0.104269 9.48361e-17)
(7.54779 -0.0628342 5.04288e-17)
(3.88275 -0.709227 -4.2967e-18)
(7.00601 0.0763519 4.66853e-17)
(6.95829 0.129118 -2.69257e-17)
(7.46454 -0.0323602 2.87724e-17)
(7.2064 -0.123068 0)
(6.6936 0.095831 0)
(7.10016 -0.223825 -1.90446e-17)
(4.69062 -0.0176487 8.5834e-18)
(3.55894 -0.576644 -2.10998e-17)
(6.50074 -0.0604152 1.23145e-17)
(7.5233 0.0480933 -2.52067e-18)
(7.01975 0.0920335 1.22258e-17)
(6.99109 0.0887407 0)
(7.3612 0.0831145 -8.02938e-17)
(7.1099 0.0915803 -6.03654e-17)
(3.59982 -0.407375 3.86501e-17)
(4.00373 -0.524119 -2.92889e-17)
(7.50354 0.00879745 5.66856e-18)
(7.59222 0.0149122 0)
(7.25034 -0.128127 -8.55306e-18)
(3.94972 0.117098 -2.6494e-17)
(7.94413 -0.168888 8.30583e-17)
(8.0027 -0.170135 -8.90065e-17)
(6.96963 0.117858 0)
(6.97551 0.130433 0)
(6.98489 0.100754 -5.38405e-17)
(6.88377 -0.297925 8.17338e-18)
(7.23703 -0.178801 1.01281e-16)
(0.411787 0.0787449 -6.74937e-17)
(7.04392 0.0834845 2.41812e-17)
(6.97693 0.127851 4.09765e-17)
(8.22977 -0.193595 -1.2068e-16)
(7.20107 -0.101339 -1.212e-19)
(7.14718 -0.134529 4.35928e-18)
(7.25383 -0.130449 8.16962e-18)
(6.65865 0.155251 -4.34397e-18)
(7.47225 -0.138235 0)
(7.20802 0.229989 -1.9479e-17)
(7.02523 0.107164 -4.74582e-17)
(6.57254 -0.265757 4.05229e-17)
(6.99954 0.00686638 0)
(6.76051 -0.255489 2.89949e-17)
(7.14383 -0.117932 -5.09629e-17)
(7.08035 0.0934946 9.60778e-17)
(7.29034 0.116159 3.92832e-17)
(7.11174 0.0552394 -3.27158e-17)
(7.25443 0.117492 7.43163e-17)
(7.04025 0.00936635 -9.57045e-18)
(7.34678 0.267422 8.07757e-19)
(7.10441 -0.160546 5.9685e-17)
(7.70805 -0.263334 -6.96649e-18)
(7.76611 -0.0382388 0)
(7.0195 -0.194729 -1.76532e-17)
(7.47524 0.265459 -2.2963e-17)
(7.21249 -0.0579901 -5.19968e-17)
(7.14883 0.187324 -8.16756e-18)
(7.36217 0.0326009 3.46495e-17)
(7.31628 0.0703937 5.76629e-17)
(7.00344 0.00641956 -2.98578e-18)
(6.63159 0.125051 -6.09811e-18)
(7.79354 0.0940516 3.28637e-17)
(7.87235 -0.110423 1.05535e-17)
(6.48242 0.197526 0)
(6.94031 -0.0944904 1.35408e-17)
(7.38103 -0.0736682 2.44953e-17)
(7.02495 0.0589024 3.71717e-17)
(7.07897 -0.0116425 2.2082e-17)
(7.69527 -0.181491 -3.62087e-17)
(7.92915 -0.0919208 3.7739e-18)
(7.94982 -0.127677 0)
(7.70308 -0.133245 -6.88828e-17)
(7.233 0.102478 1.87852e-16)
(6.90478 0.151711 -6.32823e-16)
(7.65867 -0.169394 0)
(7.76691 -0.1766 0)
(7.75257 -0.156048 6.9553e-18)
(7.6919 -0.166694 0)
(7.18157 -0.0680816 0)
(7.07168 -0.0143449 -5.69933e-17)
(7.5051 -0.180526 2.04546e-17)
(7.76144 -0.109109 0)
(7.6802 -0.156835 0)
(7.59784 -0.119002 -1.14788e-17)
(4.45569 -0.0321953 -3.59986e-17)
(4.14252 0.0883088 7.0985e-18)
(7.49927 -0.138364 0)
(7.30908 -0.163394 1.69661e-17)
(1.36312 -0.116295 -3.9469e-17)
(6.94593 0.0256722 -1.54453e-16)
(6.7959 -0.0199193 7.88557e-17)
(1.35101 -0.0658329 0)
(1.33346 0.0238941 0)
(4.99755 -0.0789303 -1.94706e-17)
(6.92791 0.114729 -3.24601e-17)
(6.59144 -0.0322676 1.56448e-18)
(8.22973 0.057432 -3.60666e-17)
(7.02937 0.127746 -1.11714e-17)
(7.0192 0.110061 -8.558e-19)
(7.03334 0.0782023 4.0052e-18)
(6.98399 0.122596 2.02442e-17)
(6.98642 0.0968488 1.48103e-17)
(8.32134 -0.123734 1.02052e-16)
(6.9045 -0.120428 7.67156e-17)
(6.72413 -0.204718 -4.06133e-17)
(5.19858 0.027111 -4.40444e-17)
(7.07785 0.0682336 2.23607e-17)
(7.0391 0.0939415 4.72242e-17)
(7.61207 0.155538 0)
(1.42453 0.0230867 5.91794e-17)
(1.82448 0.014636 0)
(7.7348 0.190491 6.89558e-18)
(8.07355 -0.0697467 0)
(7.634 0.447164 -1.37409e-17)
(7.60044 0.278049 -1.41064e-16)
(6.97608 0.0879376 0)
(6.79727 0.110772 4.70238e-17)
(6.9 0.0888728 6.93894e-17)
(7.36346 0.0838893 3.26718e-16)
(7.09554 -0.174904 -5.67346e-17)
(6.88968 -0.240554 -3.10114e-17)
(7.12158 -0.0120544 4.25591e-17)
(7.31082 0.0272713 -2.4335e-17)
(6.38503 -0.129579 -6.32792e-17)
(6.81171 0.0887333 -1.38729e-16)
(7.26983 0.210164 2.93554e-17)
(7.17793 -0.208828 -5.0748e-17)
(7.26317 -0.183359 -4.76811e-18)
(7.20241 -0.156003 -2.52656e-17)
(7.27986 -0.132628 1.60017e-17)
(7.45639 -0.13932 0)
(7.65543 -0.00103985 -9.83967e-17)
(8.28411 -0.066264 -3.12678e-17)
(6.90169 0.0103697 4.83265e-17)
(7.4296 -0.0575912 -3.74448e-18)
(7.00132 0.0524921 -6.23531e-17)
(7.31782 0.052321 0)
(7.60233 -0.0165679 6.33891e-18)
(7.45391 -0.123304 -6.29079e-18)
(7.79419 0.162477 -2.70623e-17)
(6.99028 0.226004 -1.87499e-17)
(7.00371 0.0225362 0)
(7.0016 0.0436896 5.09286e-17)
(7.39171 -0.0824622 -1.21364e-17)
(7.25946 -0.0570518 1.1286e-17)
(6.80811 -0.0864163 4.13085e-17)
(6.93586 -0.0786359 0)
(6.51313 -0.231379 0)
(7.76357 -0.11165 -2.09796e-17)
(7.59316 -0.129452 8.66924e-18)
(7.82182 0.078567 -8.05191e-18)
(8.01834 -0.077067 5.87029e-17)
(2.51739 1.28018 -6.99441e-18)
(3.0199 -0.486398 7.40381e-18)
(6.11013 2.38919 -2.43094e-18)
(6.22511 2.43653 0)
(3.04459 -1.39164 1.31526e-17)
(2.96479 -1.37115 1.37675e-17)
(7.56805 -3.68763 4.0158e-18)
(6.62924 1.11406 1.53437e-17)
(7.68778 -1.35958 2.37503e-19)
(4.31593 -0.752666 -2.11009e-17)
(6.61511 1.6157 9.84478e-19)
(5.51376 -1.47776 -1.40332e-17)
(3.85761 -0.736992 0)
(7.10059 -0.312396 -6.46341e-18)
(3.2835 -0.474237 -2.2188e-17)
(3.99165 -1.38463 -1.39721e-18)
(0.589565 0.280507 7.30178e-17)
(7.74245 -1.31751 2.91367e-19)
(4.06924 0.140076 2.51195e-18)
(5.78427 -3.24273 1.20543e-18)
(3.86907 -0.439943 -3.64969e-19)
(3.99611 -1.46122 0)
(6.2501 -2.97102 1.36038e-18)
(6.54805 -3.14576 5.22209e-18)
(6.30782 -3.56978 2.19854e-18)
(6.41696 -3.57339 -1.3533e-18)
(6.27755 2.17033 -1.85793e-18)
(6.22158 2.27209 2.02187e-18)
(0.701928 -0.365248 0)
(3.19754 -1.36393 2.70182e-18)
(3.10797 -1.30883 -1.89874e-17)
(4.62898 -0.859817 1.68842e-17)
(6.40527 -1.73492 -9.13308e-18)
(6.6156 2.69694 2.21626e-19)
(6.10124 2.70198 1.1073e-19)
(5.78575 -3.86353 1.75151e-18)
(1.61615 0.628077 -1.64057e-17)
(6.07006 2.33626 -3.2621e-18)
(6.77205 -1.8452 0)
(6.88941 -1.75659 2.15447e-20)
(6.86351 1.72748 -1.42651e-19)
(6.78913 1.72787 0)
(6.47209 1.94144 -2.44118e-18)
(6.51951 1.98352 0)
(6.53843 1.00481 0)
(6.69395 1.81669 -1.32352e-18)
(6.7531 1.8129 1.14661e-18)
(3.30011 -0.604282 3.07453e-17)
(3.41105 -0.650785 3.01208e-17)
(5.92474 2.6389 -2.29456e-18)
(6.2442 2.42592 0)
(6.22182 2.43413 0)
(7.46537 -3.125 3.77636e-18)
(7.30513 -3.40836 6.26789e-18)
(4.11773 -0.624147 0)
(4.12222 -0.334003 0)
(5.75508 -3.56714 1.80567e-18)
(5.32029 -1.24657 3.42189e-17)
(4.81297 -1.0903 -9.42562e-18)
(4.21071 -0.817483 -3.0763e-17)
(3.563 -2.12922 3.07167e-18)
(6.30116 2.09889 0)
(3.49304 -1.55042 -3.69337e-18)
(6.20271 2.42056 3.97769e-19)
(6.22994 2.30271 -5.01654e-19)
(3.25426 -1.27073 9.71197e-18)
(6.80003 -0.386807 0)
(5.7195 -3.6313 0)
(2.94292 0.028673 0)
(6.35404 -3.92066 1.62807e-18)
(6.35555 -3.88132 -7.88173e-19)
(5.75096 -3.69016 0)
(5.80389 -3.68974 -3.37263e-18)
(5.73868 -3.76774 1.76317e-18)
(3.98485 -0.419455 1.21748e-18)
(4.0177 -0.56114 1.92558e-21)
(6.89344 -2.93449 -2.27665e-19)
(6.21301 2.17169 3.18865e-19)
(6.18454 2.23472 4.87153e-18)
(6.49652 -3.32057 2.84226e-18)
(6.64365 -4.01735 0)
(3.18359 -1.50844 -7.37124e-18)
(3.1295 -0.322201 0)
(6.13654 2.23415 -5.22448e-18)
(6.12221 2.26983 0)
(6.10617 2.17801 0)
(7.0682 0.246234 -1.79581e-17)
(4.10975 -0.410952 -3.28442e-18)
(4.11916 -0.551678 -3.61431e-18)
(6.60045 0.492526 -7.62338e-17)
(6.70709 0.377662 -4.81638e-17)
(3.98585 0.84937 2.05492e-18)
(3.95399 0.995131 -2.56384e-18)
(6.42177 -3.87107 0)
(5.95025 -3.5087 1.59675e-19)
(6.26405 2.36482 0)
(6.32747 2.32985 0)
(6.3003 2.30696 0)
(6.29723 2.37945 0)
(3.09212 -1.19789 -5.43741e-18)
(5.69168 -3.79677 0)
(3.08226 -0.498016 9.93826e-18)
(3.16803 -0.494752 -6.36448e-18)
(3.13523 -0.418658 -1.76041e-17)
(3.12011 -0.540084 -5.17432e-18)
(6.40872 2.23978 5.47573e-19)
(6.3673 2.21105 3.8909e-18)
(6.51696 -3.94458 1.62386e-18)
(6.22222 2.37864 3.6626e-19)
(6.64359 1.50858 9.45444e-18)
(7.46 -0.428665 0)
(7.16985 -2.58733 1.66971e-17)
(7.3885 -2.93355 3.53206e-18)
(6.74561 -2.23028 0)
(7.07119 -0.343659 2.74278e-18)
(3.30501 -0.350882 0)
(3.32428 -0.126708 0)
(5.77038 -0.776297 0)
(0.626719 -0.194344 6.48047e-17)
(6.63407 -2.67845 -5.19491e-19)
(2.856 -1.89907 -1.11871e-18)
(7.18516 -2.74077 0)
(3.1082 -0.647279 4.57854e-18)
(3.09974 -0.845704 9.86342e-18)
(6.25261 2.40665 -7.81124e-20)
(6.24191 2.3891 -1.36117e-20)
(6.27983 2.39645 1.11755e-19)
(6.19792 0.320881 -7.74664e-17)
(3.51518 -0.174718 3.01231e-17)
(3.386 -0.330692 2.16949e-18)
(3.53206 -0.33431 -3.33515e-17)
(3.40252 -0.165896 -2.28071e-18)
(6.99026 0.168123 2.02156e-17)
(7.054 -0.248533 -2.96295e-18)
(3.55262 -0.106014 -2.42863e-17)
(3.83422 0.0396497 -5.77636e-18)
(3.80231 -0.130068 1.06407e-18)
(3.70256 0.60515 0)
(3.90498 0.350778 2.57879e-17)
(3.01898 -1.18531 0)
(3.00352 -1.08969 7.18774e-21)
(6.61661 -0.560314 7.56502e-18)
(6.66693 -0.355525 3.19046e-18)
(6.21035 2.30808 -5.26898e-19)
(6.23677 2.35376 5.54206e-19)
(3.83391 -0.31095 1.62597e-17)
(6.37142 2.33831 0)
(6.40428 2.29604 0)
(6.38467 2.41056 0)
(6.90838 -3.41411 5.68049e-18)
(7.18525 -3.48702 0)
(2.93238 -0.465717 -6.34156e-18)
(7.04867 -2.89043 -5.45433e-18)
(6.68858 -3.0423 5.72616e-18)
(6.45041 -3.96338 0)
(6.39116 -3.92421 -1.72226e-18)
(6.46437 -3.93077 6.95516e-20)
(6.3847 -3.96582 0)
(6.72625 0.276149 0)
(6.36765 -3.4538 5.60527e-20)
(6.45037 -3.53593 1.33825e-18)
(6.50543 -3.41634 -1.38335e-18)
(6.44466 -0.417572 -3.98862e-17)
(6.46352 -0.53442 5.4205e-17)
(6.52897 -0.360195 -6.08476e-17)
(3.16039 -0.273552 5.49832e-18)
(3.2509 -0.177534 -5.66392e-18)
(3.181 -0.173956 -2.864e-18)
(3.24099 -0.280878 2.74872e-18)
(4.42086 -0.42331 -3.09921e-17)
(4.19775 -0.537622 1.08148e-18)
(4.32286 -0.554331 0)
(4.35625 -0.326029 1.88233e-17)
(6.84116 0.557743 1.84971e-17)
(3.16218 -2.99623 3.9948e-18)
(3.35656 -2.82265 1.73145e-18)
(3.39912 -1.82954 6.25952e-20)
(3.24772 -1.86579 -5.1628e-18)
(3.14747 -0.149138 -5.04623e-18)
(3.15347 -0.0315939 5.40938e-18)
(3.05483 -0.169391 0)
(4.16679 0.471802 0)
(3.90449 0.762211 9.01742e-18)
(4.36261 -0.246447 0)
(4.15662 -0.0375383 0)
(4.08335 -0.227543 0)
(4.3779 -0.115946 0)
(6.881 -1.58518 5.93061e-20)
(6.8796 -1.64798 0)
(6.10116 -3.36889 1.3179e-18)
(6.13574 -3.46111 0)
(6.23311 -3.40893 1.8772e-19)
(6.04108 -3.38121 -3.91615e-18)
(3.92121 1.06982 0)
(6.17395 -3.04594 -5.37564e-18)
(5.91695 -3.17468 0)
(3.96914 1.55626 -1.17306e-18)
(4.00874 1.0951 0)
(3.7527 -0.393426 -2.40606e-17)
(3.99092 -0.242538 0)
(3.83798 -0.199653 0)
(3.96849 -0.39248 2.96014e-17)
(3.4424 -1.15284 4.15499e-17)
(3.38306 -1.27806 -1.49052e-17)
(6.92943 0.136091 -4.83457e-18)
(6.58211 -0.0647042 9.15392e-17)
(6.53961 -0.171061 0)
(6.4967 -0.12817 9.11331e-17)
(6.61971 -0.148904 0)
(3.38417 -1.04759 -1.80092e-17)
(3.46156 -0.910341 0)
(3.26189 -1.00774 0)
(4.4957 -1.10192 -2.49006e-17)
(4.65914 -0.732578 -1.12108e-17)
(4.47677 -0.832249 1.15828e-17)
(6.10917 -3.57685 1.12547e-18)
(6.13427 -3.51148 1.84003e-18)
(6.20878 -3.53897 -1.14562e-18)
(6.06277 -3.51799 -2.48648e-18)
(6.83395 -3.34718 -7.29392e-18)
(6.64586 -3.19602 -4.63139e-18)
(6.87871 -3.25528 1.6687e-18)
(6.60289 -3.29585 -3.41637e-18)
(3.97019 -1.04051 0)
(3.9667 -1.12821 0)
(3.89955 -1.0314 -3.56406e-19)
(6.09535 2.76046 4.61484e-20)
(7.35105 -0.181068 -2.84868e-17)
(7.17066 -0.211658 3.28926e-18)
(7.24456 -0.201309 1.77328e-17)
(7.27778 -0.183236 -1.19804e-17)
(6.35602 2.90504 -9.30835e-20)
(5.26939 -0.154754 5.10693e-17)
(6.09943 2.33902 -1.71527e-18)
(6.11208 2.36525 -8.03126e-19)
(6.13212 2.30621 1.42431e-18)
(3.44421 -1.40455 0)
(3.36358 -1.55559 0)
(3.63106 -1.42399 2.5901e-17)
(6.28259 -1.39399 5.07276e-18)
(3.57982 0.362536 0)
(3.75151 0.363 2.54942e-19)
(3.68083 0.283802 0)
(3.65665 0.49383 -1.07276e-17)
(6.93711 0.425739 2.38118e-17)
(3.10923 -0.929216 2.86866e-18)
(3.01402 -1.03901 -6.47367e-18)
(3.01906 -0.967881 3.41639e-18)
(3.10931 -1.02446 0)
(8.02401 0.194899 -6.29788e-17)
(0.552352 -0.0881588 1.26768e-16)
(7.74142 -0.336334 4.38026e-17)
(8.06615 -0.0260085 0)
(1.92353 -0.168132 -3.16009e-17)
(7.08344 0.284955 -1.55187e-17)
(4.66276 0.062601 -7.69643e-17)
(6.99735 0.0209757 3.78665e-17)
(7.00736 0.106601 -2.44271e-17)
(7.00658 0.0814741 -4.8876e-17)
(7.95871 -0.220424 0)
(3.57766 -0.421263 -3.11297e-18)
(6.75975 0.278545 0)
(6.80383 0.232719 1.82841e-17)
(6.04507 -0.0874347 0)
(6.32015 0.185637 -9.03071e-17)
(6.21274 0.230306 4.7994e-17)
(6.51773 0.0713122 2.54951e-17)
(6.44709 0.113632 0)
(3.2687 -0.301817 5.7857e-18)
(6.9191 0.173909 -4.36524e-17)
(6.89708 0.207026 -4.79763e-17)
(5.4236 -0.177708 -3.16067e-17)
(6.95772 0.292119 1.82278e-17)
(6.94691 0.343804 1.21471e-17)
(2.96111 0.537984 2.66195e-17)
(7.00927 0.0745329 4.32146e-17)
(7.68704 0.329712 -1.88705e-17)
(0.381417 0.104932 -8.53121e-17)
(6.99937 0.142018 -1.20638e-17)
(6.97022 0.226667 2.94714e-17)
(7.18843 0.278104 0)
(5.45792 -0.336746 -6.27433e-17)
(7.39822 -0.199858 9.04063e-17)
(3.35423 -0.319308 3.12272e-18)
(3.58472 -0.252241 -1.54099e-17)
(6.88789 0.868147 1.27611e-17)
(7.01196 0.117045 3.22895e-17)
(7.32286 -0.24456 -2.39345e-17)
(7.37804 -0.260491 -8.34334e-17)
(7.32844 -0.313665 2.73803e-17)
(7.61488 -0.19067 4.05262e-17)
(6.58255 -0.397494 7.02288e-18)
(6.56235 -0.497773 -9.67646e-18)
(7.11934 -0.17812 8.57902e-19)
(7.10437 -0.217238 2.23224e-17)
(7.05356 0.204914 -9.05638e-18)
(6.37604 -0.289999 -6.85833e-17)
(6.71837 -0.410055 0)
(6.69112 -0.523992 0)
(6.96464 -0.15099 -5.38604e-18)
(6.85996 -0.156264 0)
(0.364446 0.10602 0)
(3.08044 0.487331 1.56103e-17)
(7.55481 -0.143595 3.13267e-17)
(7.63838 -0.118214 5.63811e-18)
(7.24968 0.392524 1.81856e-19)
(7.07307 -0.218508 0)
(7.13698 -0.18752 0)
(6.70182 0.22246 -1.7214e-17)
(7.57059 -0.372088 0)
(7.00249 0.0681413 -2.27667e-17)
(6.99706 0.0848689 8.20817e-17)
(7.0112 0.174448 -2.14671e-18)
(7.33851 -2.75316 1.20651e-17)
(6.99832 -2.33719 -9.5814e-18)
(6.9908 -2.22714 8.83039e-18)
(5.69523 0.0768747 3.82609e-17)
(7.00967 0.149916 0)
(4.93801 -0.112015 -2.29369e-16)
(7.36616 -0.341198 0)
(6.67103 -0.0674644 -2.48333e-17)
(6.43002 -0.0761884 1.17888e-17)
(6.30619 -0.0784848 1.15885e-17)
(7.10748 0.32574 -2.60199e-17)
(3.05374 -0.544244 0)
(7.46324 -0.364668 8.00973e-18)
(7.41933 -0.332168 -3.79823e-17)
(4.78818 -0.153377 0)
(4.97872 -0.142444 0)
(2.96815 -0.943566 9.13952e-20)
(7.80124 0.226126 -9.45836e-18)
(7.22267 0.217213 -3.9367e-17)
(7.29043 -0.0329178 0)
(8.35686 -0.0569255 -1.0456e-16)
(7.15773 0.361481 0)
(7.12424 0.320627 1.25319e-17)
(6.94505 0.188597 -3.26485e-17)
(4.77624 -0.518138 0)
(8.15108 0.104688 -3.97116e-17)
(7.94368 0.182942 -8.32457e-17)
(5.98393 0.0197728 4.78023e-17)
(5.8327 0.0894563 -5.598e-17)
(7.33999 0.0924252 -1.26455e-17)
(6.36363 2.08106 1.5618e-18)
(6.39858 1.98991 -1.7055e-18)
(5.96279 -0.13567 -2.03367e-17)
(7.00071 0.0205482 0)
(6.98446 -0.31636 -2.36063e-18)
(7.06179 -0.246023 -2.38023e-18)
(7.00603 -0.273734 0)
(8.13713 -0.0273767 1.25587e-17)
(8.06567 0.0337409 -2.51218e-17)
(3.97393 0.47595 0)
(3.86127 0.636079 1.97099e-17)
(6.40094 2.12351 2.7611e-18)
(6.48405 2.07936 -2.54927e-18)
(6.79192 0.0416855 1.44674e-16)
(6.57712 0.0437838 5.32391e-17)
(0.689537 0.148596 1.08584e-17)
(5.15156 -0.0494657 4.91536e-17)
(7.07366 -0.00761265 -9.5085e-17)
(6.94633 0.133124 -3.95415e-17)
(6.87986 0.152505 6.47042e-17)
(6.83145 0.185962 -5.65963e-17)
(7.00947 0.0539519 0)
(7.00205 0.0428138 -1.15869e-17)
(6.92957 -0.350599 2.3694e-18)
(6.93563 -0.29632 -8.19754e-18)
(7.00739 -0.256745 0)
(3.66496 -1.33557 -2.83529e-17)
(3.56859 -1.16676 -8.01626e-18)
(3.65981 -1.04052 0)
(6.88639 0.171113 -6.8165e-17)
(6.85105 0.238016 -3.76459e-17)
(6.87375 0.205453 4.50118e-17)
(6.82154 0.252801 6.11065e-17)
(7.82441 0.343936 1.00053e-16)
(7.77728 0.298846 -4.31813e-17)
(7.82254 0.226342 0)
(6.79107 -0.081299 2.91007e-17)
(3.07476 -1.52255 -7.22258e-18)
(6.61703 0.0998268 -2.55607e-17)
(6.5808 0.146942 4.33839e-18)
(6.95195 0.0568795 1.10651e-16)
(7.27549 -0.0840718 1.34268e-16)
(3.65821 -1.59981 0)
(3.45926 -1.68373 4.67388e-18)
(5.66705 -0.0508524 -9.05178e-17)
(5.50325 -0.0685342 3.74294e-17)
(7.38122 0.101753 0)
(6.84386 -0.0842464 8.38549e-17)
(7.52406 0.0765952 -4.72365e-17)
(7.34213 -0.16301 0)
(7.52398 -3.41586 7.63943e-18)
(7.52175 -3.21469 -7.83588e-18)
(5.09902 0.0555139 0)
(5.26168 -0.00160136 -4.86567e-17)
(5.40742 0.06689 3.29973e-17)
(4.25791 0.281854 0)
(4.41914 0.240026 2.14067e-17)
(6.86237 0.2715 -1.56058e-17)
(6.85021 0.312087 -1.42302e-17)
(6.82182 0.325907 0)
(7.95054 -0.20428 -7.15254e-17)
(7.05419 0.00977694 0)
(6.96905 -0.00572597 -3.94554e-17)
(6.5102 -0.00647968 -1.65574e-16)
(6.34971 -0.0774441 0)
(6.41632 -0.00320169 9.91488e-18)
(7.11437 0.249766 1.73238e-17)
(7.11865 0.285512 3.23826e-18)
(6.23877 -0.0572113 0)
(6.22085 0.0378563 -2.43979e-17)
(6.114 0.0903141 -1.12146e-16)
(7.01321 0.0293577 0)
(7.52999 -0.339531 0)
(7.66183 -0.292125 0)
(7.66327 -0.265013 0)
(0.755443 -0.102597 -5.41806e-17)
(3.00945 0.479945 -7.41356e-18)
(7.12202 -0.245754 0)
(7.08643 -0.285099 1.15812e-17)
(7.04873 -0.278449 -7.31996e-18)
(3.68396 -0.73975 6.07787e-18)
(3.60247 -0.897576 0)
(7.71865 -0.121822 6.1157e-18)
(7.97332 0.0713881 6.39621e-17)
(7.71418 0.148325 0)
(9.72582 0.444459 1.13173e-18)
(9.67567 0.510655 0)
(5.98074 1.13036 1.62805e-19)
(6.26006 -4.18527 1.25631e-20)
(6.65686 0.552647 -7.08756e-17)
(3.77029 0.337387 2.00027e-18)
(6.51762 1.14003 -3.28804e-20)
(2.96582 0.500496 6.68128e-18)
(3.74969 -0.679842 0)
(6.11187 3.10298 1.75063e-19)
(5.60849 -3.1041 0)
(5.64082 -3.18299 0)
(7.06207 -4.11986 0)
(6.26291 2.16325 0)
(6.26481 2.14787 3.57622e-20)
(6.10001 2.29583 0)
(6.09632 2.32051 -2.03678e-21)
(6.13394 0.736287 0)
(7.93282 0.286703 -5.21399e-19)
(6.97855 -2.06174 0)
(3.6335 -2.24084 1.57615e-18)
(4.23716 0.200632 2.55718e-19)
(6.21884 -2.10367 6.41404e-20)
(6.25989 -2.15209 -8.05996e-20)
(6.75656 -4.06087 -1.75699e-19)
(6.7642 -4.06227 0)
(6.95647 1.03379 0)
(8.40401 0.936847 0)
(1.53142 -1.6886 4.21019e-17)
(2.83534 0.085452 -2.19099e-18)
(2.41704 -2.81781 -6.00052e-18)
(2.33007 -2.77879 0)
(6.48349 2.68361 1.78166e-20)
(7.463 0.780677 0)
(7.45153 0.821642 0)
(4.81964 0.930057 0)
(3.34808 -2.66996 0)
(7.44845 0.531514 -2.96906e-20)
(2.59842 -0.860907 -5.13609e-18)
(7.20086 1.24013 3.01148e-20)
(3.41603 -1.86823 -2.08315e-18)
(6.09655 0.752581 -1.41982e-22)
(4.12953 1.02174 0)
(4.10389 0.981599 0)
(6.51329 2.90034 0)
(8.04645 0.188562 -5.07156e-19)
(6.51376 -4.09505 8.97994e-19)
(3.09646 -3.60931 2.15871e-18)
(3.22283 -3.33386 2.50329e-20)
(6.99492 1.02494 0)
(8.50252 -0.555049 0)
(6.057 3.12926 -4.40245e-19)
(6.00876 3.08874 0)
(6.00042 2.90529 7.22245e-19)
(6.69403 -0.741888 1.937e-17)
(8.01555 0.511307 0)
(7.32205 0.949306 -6.84546e-20)
(6.69393 -0.834905 2.27911e-17)
(6.06085 3.49424 -2.89056e-21)
(6.78108 -2.00784 -5.84727e-20)
(6.77571 -1.96145 7.0101e-20)
(7.01021 -4.08671 8.20339e-19)
(7.04281 -4.08725 2.83789e-18)
(7.44906 0.679743 -5.01047e-20)
(7.45518 0.622357 -1.3949e-20)
(8.67315 -0.264627 1.41279e-18)
(6.20498 2.13255 0)
(6.24412 2.13959 -3.32575e-20)
(8.97554 1.00627 2.02274e-18)
(6.47137 0.9694 3.06027e-20)
(5.91117 -4.14032 2.22836e-18)
(5.4565 -3.01262 -2.15636e-18)
(5.85104 3.05897 -3.27849e-20)
(6.41028 -2.2616 2.34272e-20)
(7.8197 0.21802 0)
(5.99587 -2.42739 4.46939e-18)
(6.41438 0.907789 -7.69057e-18)
(6.2915 -1.4249 0)
(4.51406 -1.53802 2.97608e-17)
(9.08613 0.0369 2.98431e-20)
(3.33772 2.21373 -2.52292e-18)
(5.71785 2.45724 1.44713e-18)
(5.66786 2.42152 -1.41283e-18)
(7.30926 1.11764 0)
(3.86758 -0.813583 -3.43853e-19)
(3.89116 -0.976449 -3.16974e-19)
(6.21796 2.28654 2.04646e-19)
(6.29805 -2.25429 5.62544e-20)
(4.21747 1.72756 -2.66897e-19)
(2.97084 -0.0814396 6.41529e-18)
(3.04126 0.0822352 1.15306e-17)
(7.33838 -1.31582 2.32278e-19)
(6.1745 0.948153 1.28265e-19)
(6.20144 0.971042 -2.08557e-19)
(6.11827 -4.2465 -1.15479e-18)
(6.06298 -4.26673 -2.36668e-20)
(8.40139 0.283915 3.86031e-19)
(8.39956 0.334828 2.77192e-19)
(7.18197 -1.60218 0)
(7.06419 0.515805 -1.0477e-20)
(4.16194 1.40101 1.39338e-18)
(4.24107 1.31309 1.81595e-18)
(7.04595 3.30769 1.15939e-19)
(7.16171 0.639241 -3.04185e-20)
(5.63883 -4.12311 -1.29369e-18)
(6.23627 3.26591 4.2758e-20)
(6.31409 3.15396 3.53211e-21)
(4.49793 -0.268914 -1.39578e-18)
(4.69661 -0.344431 -6.65528e-19)
(7.89788 -0.835921 0)
(6.68565 0.587073 1.12673e-19)
(7.9884 0.705695 0)
(7.86572 0.665489 2.25163e-19)
(6.49515 0.708482 -1.78981e-19)
(4.12119 -1.47467 0)
(4.05517 -1.49433 0)
(6.35369 0.932796 2.58167e-20)
(7.62578 0.188494 -1.23105e-19)
(7.22125 -4.12087 0)
(5.58975 1.17611 0)
(7.58028 -3.51658 0)
(6.34929 -4.21588 6.14638e-19)
(6.34202 -4.24434 1.1011e-18)
(4.48478 0.166096 1.78082e-18)
(4.50807 0.0999765 -1.59866e-18)
(4.09062 -1.24413 -3.54457e-19)
(8.37135 -4.50585 1.05811e-18)
(7.92241 -2.64275 1.21375e-19)
(1.20889 -3.34606 4.68256e-18)
(7.97551 -3.77146 4.53286e-19)
(5.91553 2.07815 -1.10012e-19)
(6.17248 2.4266 5.76432e-19)
(7.52502 -0.571007 -3.0299e-19)
(7.63449 -0.565779 1.28893e-19)
(5.79774 2.9112 7.04975e-20)
(3.92927 -0.649454 1.34613e-18)
(3.8602 -2.99146 6.26398e-18)
(6.65104 1.1111 0)
(9.34856 -2.09482 2.31022e-18)
(7.583 0.911026 1.86991e-19)
(7.01938 -1.08311 0)
(6.72841 0.685439 4.16995e-20)
(6.2023 1.92839 6.89223e-19)
(6.16037 1.88867 -1.4111e-18)
(8.20883 -0.401254 4.41889e-19)
(8.18998 -0.313224 -8.03678e-19)
(6.04809 -2.58395 -3.06165e-19)
(4.3043 0.672662 -9.27927e-19)
(6.34865 2.31712 -9.50842e-20)
(6.41635 3.0412 -1.82903e-21)
(7.2831 1.06771 1.82642e-20)
(5.96119 1.06539 1.57423e-19)
(6.99136 0.582286 0)
(2.40867 -1.92933 0)
(3.74428 -0.594826 0)
(8.20748 1.60785 1.29443e-19)
(7.82288 -0.683905 2.30366e-19)
(7.10739 -1.60282 -1.34016e-19)
(6.95856 -1.64989 0)
(4.73317 0.0155181 -1.60961e-18)
(4.79309 0.00632081 0)
(5.30528 -3.40453 -1.88262e-19)
(5.40104 -3.42669 -8.45572e-19)
(6.70118 -0.966074 0)
(8.43914 -0.115801 0)
(8.42574 -0.0638283 0)
(6.85019 -4.05792 0)
(6.79242 -4.05897 0)
(6.53938 2.49252 9.01293e-21)
(6.53073 2.9369 -4.34592e-21)
(6.52177 2.9754 9.47538e-21)
(6.30526 2.31487 -1.15024e-19)
(7.36364 -1.45852 2.46748e-19)
(7.22676 -1.5403 9.54315e-20)
(7.03981 3.36099 -2.58752e-19)
(5.70114 1.13348 0)
(5.89878 1.06352 3.08475e-19)
(5.90858 1.02 1.58606e-19)
(7.29534 0.814679 1.53854e-19)
(7.40081 0.827118 -1.4172e-19)
(7.87776 -4.29827 4.10634e-18)
(7.92853 -4.25106 0)
(6.04918 2.30141 -2.76983e-20)
(7.10465 -0.979945 9.66469e-20)
(7.0825 -1.07323 0)
(3.01293 0.612698 -6.94246e-18)
(2.97541 0.571686 7.88645e-18)
(3.00885 0.73005 -3.5315e-18)
(6.69603 -4.02454 1.00309e-18)
(6.06607 -0.210088 0)
(6.30323 -0.861502 0)
(5.858 0.605956 4.0027e-19)
(5.93395 -2.08883 0)
(4.41903 0.644456 -1.00395e-19)
(4.49239 0.542472 1.22715e-18)
(7.24096 -3.78308 3.88562e-18)
(7.45634 -0.565947 -3.51326e-19)
(6.21529 2.19713 -1.79297e-19)
(7.26018 1.70086 8.5118e-20)
(8.28022 -0.727543 0)
(8.36681 -0.591755 0)
(6.1544 0.386103 9.74581e-21)
(7.19325 -1.92232 3.4526e-19)
(6.41484 -4.23881 -2.51168e-19)
(6.49141 1.50258 8.80205e-19)
(7.89414 0.637556 0)
(7.9687 0.656584 0)
(6.16181 -4.14742 6.57156e-19)
(6.24311 -4.12829 0)
(7.22483 -4.50893 -8.9116e-19)
(4.6444 0.335695 0)
(4.48197 -0.202754 2.32874e-19)
(3.35134 -3.26255 0)
(6.32357 2.2015 1.11424e-19)
(6.24821 -4.29377 0)
(6.31281 2.23979 5.38145e-20)
(6.35381 2.2739 -9.48229e-20)
(5.56495 -3.23924 2.86945e-19)
(5.39529 -3.32522 0)
(7.70881 -1.04658 0)
(7.655 -1.09195 0)
(8.2063 1.17241 0)
(6.29327 2.22622 -5.6566e-20)
(6.25831 2.19144 1.75303e-19)
(6.35107 2.25165 -6.09527e-20)
(6.37307 2.24829 5.26064e-20)
(6.3354 2.23556 7.98688e-22)
(7.51936 0.623077 -1.30178e-19)
(4.85155 0.898578 0)
(9.27497 -2.14054 9.88955e-19)
(6.48654 2.71917 8.66758e-21)
(6.28568 2.52371 -2.91483e-19)
(6.25321 2.53384 0)
(5.83952 -4.27349 -4.7499e-19)
(5.84368 -4.31445 4.86773e-19)
(6.81584 1.00253 -8.28367e-22)
(4.10402 0.62272 -4.47541e-20)
(5.58174 -1.75137 -1.66684e-17)
(5.20951 -1.42405 1.84257e-17)
(6.25941 -2.09102 1.36309e-18)
(6.21673 1.04039 1.40968e-19)
(3.74421 0.27435 -3.21369e-18)
(6.07431 2.25018 -1.55494e-19)
(6.44922 2.31318 1.30942e-20)
(8.08252 -4.40122 -1.34949e-18)
(4.2976 1.19797 0)
(4.91389 -0.38554 -9.04526e-19)
(6.06264 2.33816 4.97174e-19)
(6.076 2.32359 -6.75061e-19)
(6.03819 2.32654 -1.43348e-19)
(6.52372 -1.91892 3.85997e-20)
(7.10067 -1.34165 0)
(7.99571 -4.13839 1.31378e-18)
(6.86769 -1.34438 2.14312e-20)
(6.75577 -1.4139 2.81998e-20)
(7.79247 0.652364 1.62172e-19)
(6.62078 -4.04166 -3.52229e-21)
(6.52896 -4.06079 0)
(5.66898 -3.06933 7.16769e-19)
(7.44382 -4.34313 3.6659e-19)
(6.52688 -2.9935 1.29081e-19)
(6.46008 -4.17583 9.05794e-19)
(8.30748 -1.28231 -9.27201e-20)
(3.21382 -3.1409 -1.85294e-18)
(3.28308 -3.19228 -8.98515e-21)
(1.7156 -1.44211 1.61672e-17)
(6.54539 -4.04472 3.08452e-19)
(6.5164 -4.03292 0)
(6.59288 -4.03417 -3.46833e-19)
(2.8568 0.71694 -9.87817e-18)
(4.4592 0.866394 -4.30449e-19)
(4.45538 0.924351 2.23044e-18)
(6.31182 -1.5826 0)
(6.49049 -4.06622 7.92855e-19)
(8.04733 -0.819949 -1.55639e-19)
(8.14395 -0.774437 -1.86004e-19)
(6.40306 -0.39354 -1.70863e-19)
(7.55636 0.831762 1.27464e-19)
(5.45233 2.971 -4.99189e-19)
(3.20939 0.5289 0)
(7.63126 -3.81162 0)
(6.45729 1.57884 4.65575e-18)
(6.65814 -2.03815 -3.65806e-23)
(5.90349 2.695 1.22705e-18)
(5.90738 2.83162 -5.52419e-19)
(6.63599 -0.97677 0)
(6.62084 -1.05837 3.00039e-20)
(6.55017 -1.09504 -1.00112e-19)
(7.33151 -4.27309 1.27404e-19)
(3.21852 -1.47483 -5.54803e-18)
(6.39319 2.70089 -1.23252e-19)
(6.26952 2.80836 5.79613e-19)
(2.30621 -0.985411 -1.30288e-17)
(6.16505 2.70933 1.53757e-18)
(5.60668 -3.54068 0)
(6.25708 2.92813 7.09174e-20)
(6.21684 3.03732 -5.71241e-20)
(6.78987 -4.05375 -5.40384e-19)
(5.12908 -0.392382 -1.08412e-18)
(6.3285 3.20423 0)
(6.29493 3.26224 -4.77227e-21)
(3.98123 0.210422 -1.26482e-18)
(3.53733 -2.78421 1.40427e-18)
(7.81627 0.559255 5.3519e-19)
(3.89129 1.92785 -2.40223e-20)
(5.75424 -4.1409 7.89451e-19)
(5.70105 -4.16881 -1.8135e-18)
(6.41331 2.52531 -3.16414e-20)
(6.2776 -0.498533 0)
(4.06082 -0.179874 -1.60927e-19)
(4.10078 -0.285013 0)
(4.04463 -0.269662 1.50785e-19)
(4.12063 1.42992 -1.76059e-18)
(6.38824 -1.57696 -1.3149e-19)
(6.49613 -1.53329 0)
(6.68593 -1.51183 1.17646e-20)
(6.70082 -1.43153 -2.82314e-20)
(7.23098 -1.48053 7.73078e-20)
(7.30514 -1.43291 -2.71365e-19)
(8.01825 -0.782767 -1.58541e-19)
(7.9401 -0.789479 1.57991e-19)
(8.04901 -0.687714 0)
(4.20789 0.636674 -4.4528e-21)
(4.15372 0.59481 -2.16304e-18)
(3.75329 0.415812 5.37529e-18)
(6.73189 -1.19471 7.21929e-21)
(6.70796 -1.28142 0)
(6.67363 -4.05792 2.92649e-19)
(6.73708 -4.05764 -2.8117e-19)
(6.09893 -3.92091 -3.79924e-18)
(6.13266 -3.96329 1.91171e-18)
(5.59964 -4.16715 -9.24034e-19)
(5.34188 -3.98507 -8.34914e-19)
(7.74077 0.832842 4.95736e-19)
(5.75908 -3.48371 -1.6475e-18)
(5.67399 -3.46522 1.46398e-18)
(6.58713 -0.645697 -3.69261e-17)
(6.62345 -0.730839 -2.56036e-17)
(3.84236 -2.67913 4.14973e-20)
(3.76062 -2.67297 0)
(8.16428 -1.0201 8.13051e-19)