/*--------------------------------*- C++ -*----------------------------------*\
  =========                 |
  \\      /  F ield         | OpenFOAM: The Open Source CFD Toolbox
   \\    /   O peration     | Website:  https://openfoam.org
    \\  /    A nd           | Version:  6
     \\/     M anipulation  |
\*---------------------------------------------------------------------------*/
FoamFile
{
    version     2.0;
    format      ascii;
    class       volScalarField;
    location    "1200";
    object      nut;
}
// * * * * * * * * * * * * * * * * * * * * * * * * * * * * * * * * * * * * * //

dimensions      [0 2 -1 0 0 0 0];

internalField   nonuniform List<scalar> 
29884
(
0.276502
0.225811
0.122061
0.155995
0.15636
0.129647
0.194283
0.26406
0.213509
0.141145
0.153475
0.141699
0.15303
0.287656
0.280252
0.191992
0.287512
0.266338
0.279677
0.172693
0.278032
0.118572
0.142525
0.140649
0.144303
0.155031
0.194267
0.219038
0.150185
0.253726
0.148664
0.162954
0.195118
0.185294
0.14375
0.147361
0.249556
0.166572
0.179352
0.187772
0.231717
0.184851
0.17632
0.20085
0.183851
0.166772
0.175519
0.176293
0.136638
0.17088
0.167686
0.174263
0.193059
0.275297
0.26345
0.267733
0.187167
0.284168
0.262191
0.266544
0.198325
0.190178
0.135273
0.171054
0.166633
0.172804
0.280479
0.204137
0.302712
0.211422
0.141247
0.149598
0.143864
0.10938
0.318181
0.281005
0.234023
0.231107
0.225816
0.211602
0.18031
0.197638
0.114284
0.142304
0.121861
0.0972636
0.148768
0.156759
0.139377
0.0720563
0.144925
0.156801
0.100537
0.0635752
0.151727
0.000393665
0.139823
0.139895
0.149687
0.0662131
0.139773
0.139237
0.16971
0.177211
0.153337
0.19629
0.0781242
0.0766071
0.153753
0.138875
0.162646
0.000105678
0.135818
0.119418
0.141652
0.142041
0.149586
0.111755
0.147688
0.136879
0.139772
0.14103
0.161318
0.140047
0.137246
0.262213
0.225215
0.203515
0.301276
0.147657
0.142994
0.147239
0.254158
0.237404
0.130996
0.144061
0.165755
0.152022
0.163568
0.163721
0.15545
0.161953
0.173173
0.157198
0.170787
0.173863
0.160356
0.165417
0.17854
0.173852
0.171459
0.0947685
0.0831482
0.183433
0.248948
0.215543
0.198889
0.175013
0.229395
0.201179
0.18903
0.156037
0.154216
0.172865
0.000279221
0.000275706
0.20466
0.160423
0.139483
0.139515
0.212176
0.139184
0.139019
0.116688
0.119029
0.15175
0.14394
0.18894
0.142634
0.15592
0.145595
0.12895
0.131143
0.135101
0.118084
0.132495
0.139598
0.139231
0.155446
0.150239
0.155872
0.141458
0.136617
0.143543
0.146344
0.146707
0.141175
0.146817
0.151879
0.149795
0.218058
0.17736
0.153686
0.142318
0.150025
0.136204
0.144571
0.128586
0.139965
0.185045
0.17447
0.215508
0.219194
0.19485
0.257676
0.0433692
0.100993
0.0376851
0.112277
0.0390933
0.0370962
0.0646582
0.137476
0.119695
0.0854716
0.0347367
0.0421455
0.0541582
0.00687512
0.0448223
0.057019
0.0386825
0.0490644
0.0504508
0.0541012
0.0474441
0.0458287
0.138029
0.148412
0.0210248
0.0333867
0.000668002
0.0422757
0.0330114
0.0507443
0.123427
0.0425269
0.0387102
0.0996701
0.075142
0.0577678
0.0784345
0.114581
0.111361
0.0372986
0.0372448
0.0443752
0.0417216
0.0863234
0.0897424
0.0627302
0.102854
0.0207486
0.00095122
0.0826214
0.0349551
0.0627121
0.122787
0.122449
0.0347558
0.0874297
0.0888552
0.0472913
0.0317224
0.028378
0.0768342
0.0715912
0.0542771
0.0576842
0.0275603
0.154279
0.04778
0.129501
0.0905884
0.138236
0.116788
0.11655
0.0359103
0.0002245
0.137769
0.0487169
0.0476581
0.0483917
0.0242845
0.0469254
0.0476659
0.108553
0.0475604
0.0476875
0.0370299
0.0648882
0.0431809
0.0447059
0.0437382
0.0537686
0.0598455
0.0755372
0.13156
0.111196
0.11212
0.112841
0.110356
0.0421111
0.0157212
0.0172745
0.0511093
0.0563437
0.0444433
0.0619305
0.0624264
0.0669484
0.0638293
0.0585693
0.058725
0.0535522
0.0897089
0.0410406
0.0421515
0.0442899
0.0391131
0.111266
0.112791
0.112932
0.111342
0.0418457
0.0403324
0.13768
0.0896414
0.0477844
0.0460201
0.0629062
0.121186
0.0423116
0.111725
0.135623
0.0466128
0.0505674
0.0488786
0.0482535
0.0722806
0.0714775
0.0653942
0.0873969
0.088339
0.0860051
0.0626384
0.0571236
0.0542273
0.0553723
0.0577379
0.0634869
0.0738438
0.132617
0.121268
0.110004
0.110186
0.120602
0.132996
0.000464135
0.0404685
0.0628181
0.0596476
0.136948
0.144265
0.129412
0.100195
0.0956568
0.0640739
0.0481765
0.0509058
0.0464967
0.117151
0.126825
0.122653
0.131514
0.0427347
0.0494817
0.045745
0.0460094
0.0891213
0.0853422
0.0836487
0.0912507
0.0534434
0.0555569
0.0569605
0.0438225
0.0426529
0.0485077
0.0399401
0.0833071
0.0710142
0.0923917
0.0848746
0.0882311
0.0898102
0.0210986
0.137239
0.138458
0.139443
0.138697
0.0403603
0.0421167
0.0477483
0.0470074
0.0450094
0.0596614
0.0630809
0.0338933
0.0386111
0.0392214
0.0160686
0.0534253
0.0568421
0.050538
0.071863
0.0795188
0.0739361
0.0764369
0.0502027
0.0554523
0.0532542
0.0523143
0.129995
0.0644317
0.0619757
0.066604
0.0604268
0.0585229
0.0609828
0.0408075
0.042768
0.0426135
0.0408406
0.151293
0.14996
0.135415
0.0626613
0.0598559
0.0625493
0.0589485
0.122013
0.137934
0.0756161
0.0852109
0.130525
0.145212
0.139345
0.130474
0.154895
0.00582525
0.12425
0.125664
0.0758708
0.0427795
0.045241
0.0473612
0.0415101
0.0817725
0.0906597
0.0866454
0.08623
0.137937
0.137752
0.138008
0.139659
0.139598
0.165708
0.15111
0.157504
0.158882
0.140553
0.144531
0.142459
0.142391
0.0323335
0.0300806
0.0284857
0.0331732
0.104197
0.103054
0.106672
0.0448441
0.0420428
0.0420781
0.044541
0.136926
0.134679
0.13618
0.000667067
0.00434495
0.138654
0.0106554
0.11981
0.139542
0.138712
0.000929094
0.00124957
0.139023
0.139047
0.139215
0.138839
0.0711681
0.138484
0.125242
0.000262759
0.000317929
0.137303
0.036729
0.229786
0.139299
0.255868
0.126273
0.140707
0.138873
0.000663442
0.141439
0.134161
0.140308
0.137771
0.0626995
0.125521
0.137792
0.123097
0.134686
0.144494
0.129586
0.124415
0.170405
0.210773
0.240632
0.105888
0.105805
0.139024
0.139008
0.139739
0.139571
0.130098
0.00579759
0.128458
0.121801
0.105127
0.139093
0.117297
0.139092
0.139067
0.139036
0.00270684
0.138396
0.13861
0.0625933
0.0649407
0.0650496
0.122467
0.243772
0.209487
0.126202
0.122216
0.126037
0.101954
0.107189
0.12758
0.128323
0.184441
0.204709
0.128471
0.252017
0.138226
0.138331
0.253113
0.207046
0.000874903
0.126467
0.261356
0.0962082
0.141823
0.142994
0.000358424
0.0762211
0.0699071
0.137475
0.139554
0.139343
0.111474
0.121042
0.131238
0.129511
0.0398498
0.0397679
0.143996
0.141417
0.144949
0.139507
0.139251
0.00102302
0.138898
0.137317
0.136076
0.137795
0.138048
0.138268
0.183991
0.133304
0.136217
0.130112
0.132706
0.160391
0.166207
0.199386
0.177101
0.12098
0.137545
0.13337
0.141371
0.136718
0.128406
0.145782
0.159902
0.150064
0.146705
0.123301
0.119439
0.0566813
0.0521055
0.048204
0.0387494
0.139012
0.140633
0.142107
0.253591
0.194482
0.0871518
0.0934598
0.200846
0.172058
0.196888
0.145535
0.159299
0.153736
0.164483
0.234703
0.189111
0.18154
0.0633297
0.0618797
0.138762
0.138566
0.139553
0.138284
0.157074
0.111373
0.114705
0.118359
0.137574
0.13818
0.13755
0.137637
0.137229
0.139664
0.162043
0.153466
0.132898
0.139607
0.142532
0.14516
0.135599
0.136203
0.212199
0.26776
0.237836
0.109211
0.113533
0.116007
0.00433148
0.00473143
0.136115
0.133493
0.0652971
0.061105
0.165918
0.168775
0.162056
0.0318217
0.0301659
0.0702383
0.0697726
0.037789
0.0384984
0.0436491
0.0776109
0.0731458
0.0757823
0.0291945
0.0758238
0.00610042
0.0423073
0.018002
0.0609034
0.0346685
0.00669525
0.0717423
0.0352748
0.00784459
0.00676784
0.00727816
0.0895954
0.0899369
0.0719527
0.0625486
0.0628892
0.0771695
0.0506192
0.0497387
0.0188684
0.0754203
0.0746226
0.0540327
0.055709
0.0556864
0.0619631
0.0660627
0.0662117
0.0306633
0.0754064
0.0752436
0.0120723
0.00282444
0.0349001
0.0366943
0.032802
0.0927411
0.0947186
0.0257237
0.0456906
0.0265808
0.0817954
0.0770202
0.074234
0.0104001
0.0700268
0.0704384
0.0732952
0.0529172
0.0564985
0.0614559
0.0591518
0.0513531
0.0944191
0.0645951
0.0325432
0.0756105
0.0138921
0.01669
0.106469
0.0977846
0.0330721
0.0674716
0.0245902
0.0457205
0.0176555
0.0605913
0.0626629
0.0925804
0.0015625
0.045455
0.0712215
0.072054
0.0464471
0.0454178
0.0748414
0.0477404
0.0481344
0.046327
0.00154438
0.0674855
0.0363766
0.0371113
0.0220278
0.0673059
0.0671716
0.0405203
0.042194
0.0312607
0.0318285
0.0638156
0.0716194
0.0392779
0.0764714
0.0735938
0.104543
0.0442257
0.00840896
0.064602
0.0645369
0.035474
0.0526011
0.0553435
0.0115547
0.0016499
0.0471707
0.0345705
0.0766298
0.0764743
0.0410574
0.038459
0.0510469
0.0516516
0.0393565
0.00915396
0.0469485
0.0385314
0.0383506
0.0291734
0.0575157
0.0353768
0.00139742
0.0247551
0.0888454
0.00582107
0.00585923
0.0959707
0.0960129
0.118719
0.0583712
0.072257
0.00947858
0.0802293
0.0725914
0.071472
0.0676424
0.0461929
0.0598074
0.0581385
0.0551232
0.079353
0.00675026
0.0133947
0.051879
0.0711692
0.0704716
0.0465266
0.049124
0.0552981
0.0774762
0.0579598
0.0576135
0.0500551
0.0712378
0.0667617
0.0651294
0.0683012
0.0649158
0.0412921
0.0362259
0.034811
0.0341545
0.0532158
0.0690586
0.0340826
0.0462327
0.0443449
0.0654649
0.0829187
0.0469689
0.0347098
0.0640637
0.0652404
0.0456377
0.13616
0.107571
0.0578655
0.0588744
0.055457
0.0851658
0.0525858
0.0696678
0.062967
0.0759932
0.0758572
0.0351124
0.065281
0.0244108
0.0823257
0.0588956
0.0617391
0.0626498
0.0432703
0.0564352
0.0559453
0.0491958
0.135294
0.0874448
0.020291
0.019628
0.0520348
0.0697816
0.0687628
0.083748
0.0787393
0.0770555
0.0395417
0.0408591
0.0384317
0.0104202
0.0537571
0.0538845
0.055255
0.0746957
0.0748548
0.0730651
0.073033
0.0517912
0.0511245
0.0292347
0.0637437
0.0648566
0.0639543
0.0638259
0.0729664
0.0137506
0.0571708
0.0541366
0.0489404
0.0190057
0.0735434
0.0748723
0.0851116
0.0859833
0.0336985
0.0369661
0.0668325
0.056746
0.0260166
0.086884
0.0871892
0.0516599
0.0617418
0.0377293
0.00506146
0.125917
0.124228
0.0723932
0.0724416
0.0734756
0.0821094
0.083128
0.067508
0.10355
0.0199128
0.023464
0.0764716
0.0795135
0.0733763
0.060214
0.0660418
0.0620803
0.0662014
0.0416013
0.0395861
0.0894979
0.0899211
0.0535845
0.031128
0.0310018
0.0688732
0.0701834
0.0161074
0.0119252
0.00815176
0.0590862
0.044512
0.0668597
0.0677333
0.00478434
0.00405256
0.0669516
0.0663455
0.0681161
0.0461695
0.0437364
0.0619876
0.0510938
0.0667361
0.0508173
0.050158
0.0535482
0.0173498
0.0183307
0.107551
0.0670134
0.0187396
0.0178894
0.0739404
0.0737736
0.0718041
0.0713199
0.0723815
0.0517349
0.0512262
0.00429657
0.0614388
0.0584404
0.105858
0.0131493
0.0129711
0.0170757
0.0343156
0.0421973
0.0394498
0.0750163
0.0350842
0.0943031
0.0956161
0.115735
0.110016
0.0560549
0.0342613
0.0349856
0.0385099
0.0398379
0.100647
0.100085
0.0988612
0.0595055
0.0643813
0.0438789
0.0126711
0.0200319
0.0650201
0.0292918
0.0303805
0.0521782
0.0532714
0.0909403
0.0504321
0.0512852
0.058661
0.0559357
0.0712851
0.0721539
0.07056
0.0722695
0.0737971
0.0518363
0.0726041
0.00685064
0.0252504
0.0300768
0.0166117
0.017115
0.0538669
0.0727203
0.0546439
0.0580594
0.0589003
0.0591038
0.0583052
0.0591309
0.0572528
0.0487071
0.0473957
0.0334547
0.0385481
0.0342854
0.0659903
0.0664739
0.0652892
0.00439422
0.0652149
0.106133
0.103541
0.0651859
0.0643744
0.0653386
0.0670887
0.0691518
0.0396298
0.0416771
0.0409875
0.0402487
0.0584599
0.0541773
0.0429117
0.0950508
0.0945482
0.0943667
0.0647855
0.0885809
0.0299709
0.0290672
0.0249998
0.0341736
0.0318391
0.0331267
0.105466
0.0542255
0.0549784
0.0745626
0.106959
0.104069
0.0735877
0.0966399
0.0504506
0.04896
0.0502029
0.0436695
0.0423453
0.0445154
0.085318
0.0449581
0.0717124
0.0718149
0.104528
0.0432364
0.0774038
0.077182
0.0773191
0.0380287
0.000966182
0.0699525
0.0491958
0.047705
0.0121182
0.000402677
0.102145
0.052383
0.107886
0.049045
0.0499715
0.0782534
0.0582139
0.0796128
0.112513
0.0156517
0.0764022
0.0760554
0.078762
0.0360116
0.101176
0.099856
0.10211
0.0733647
0.0749626
0.000670913
0.0521935
0.0508889
0.100085
0.102811
0.0980651
0.000763155
0.000801463
0.0922089
0.0257514
0.0218765
0.0475135
0.0496551
0.049049
0.0480549
0.0878995
0.0324684
0.0316001
0.064484
0.000608264
0.0710239
0.0713158
0.0805451
0.0793136
0.0767829
0.0199823
0.0643314
0.0629059
0.0983649
0.0986469
0.0195945
0.0861747
0.086848
0.0868349
0.0610056
0.060889
0.0745994
0.0872743
0.0744972
0.0544965
0.00200605
0.0434228
0.0608547
0.000568477
0.0356854
0.0917782
0.0554239
0.00532443
0.0509555
0.0493476
0.063876
0.0653418
0.0876701
0.0836766
0.0590988
0.0599434
0.056371
0.0777668
0.078942
0.0773115
0.0771282
0.0765973
0.000952484
0.0239348
0.000505525
0.0577527
0.00513092
0.135964
0.136164
0.136281
0.135928
0.0693195
0.0567919
0.0566827
0.137764
0.138097
0.0586113
0.0788391
0.0772571
0.0770812
0.0450978
0.0744652
0.0675656
0.0692978
0.0935715
0.0897473
0.0588599
0.0551124
0.0562258
0.000535711
0.0376466
0.0391295
0.0399995
0.037002
0.0762645
0.0763485
0.0326557
0.0936825
0.0952011
0.0770592
0.0647439
0.0652637
0.0614586
0.0442298
0.0424954
0.0455486
0.0372365
0.0361057
0.127954
0.0700291
0.0378869
0.03749
0.0695419
0.0704265
0.0927184
0.0927379
0.0934694
0.0920244
0.0728562
0.072754
0.066163
0.0687593
0.0689738
0.0687202
0.0984684
0.096245
0.000311167
0.0451409
0.0460688
0.0194941
0.0161789
0.000439072
0.000646928
0.000619126
0.0398324
0.0392332
0.00903653
0.00949587
0.0930501
0.0781136
0.0850397
0.0695572
0.0391926
0.0187744
0.0178841
0.0209271
0.0675514
0.0659876
0.0679915
0.0661738
0.000443935
0.000765277
0.000784947
0.00115185
0.00934633
0.0127156
0.0375671
0.0365364
0.000858462
0.0441432
0.0258342
0.0922383
0.0920102
0.0945457
0.0912398
0.0919212
0.090958
0.105277
0.106832
0.10416
0.102446
0.0726872
0.058349
0.061783
0.0576106
0.0530638
0.0538071
0.0512691
0.116309
0.105276
0.110252
0.0945403
0.0954427
0.0955099
0.0749365
0.0707401
0.0707725
0.0699659
0.0680969
0.0723297
0.0741838
0.0695818
0.0688945
0.0697223
0.000410862
0.000691991
0.0895576
0.0904361
0.08997
0.0899904
0.035848
0.0664258
0.0668061
0.0656726
0.0918368
0.0931342
0.0935564
0.0912865
0.0574168
0.0578481
0.0564259
0.158601
0.0393222
0.0656666
0.0663171
0.0651172
0.0670363
0.0784165
0.0843995
0.062555
0.0635558
0.0723471
0.0702398
0.0255575
0.128357
0.0345835
0.0331532
0.105444
0.000360855
0.0565983
0.0708171
0.0705956
0.0711457
0.0696753
0.0837156
0.0846975
0.00798965
0.0452838
0.044818
0.0466047
0.0426248
0.0448653
0.0390992
0.0486943
0.0524783
0.0513999
0.00448253
0.00435393
0.0490816
0.0497671
0.063184
0.0629071
0.0640172
0.000335606
0.0571154
0.000621059
0.0689461
0.0678887
0.0661169
0.0675349
0.0658837
0.00165042
0.0479456
0.0491673
0.0485188
0.0795802
0.0664924
0.0721218
0.0717174
0.0628082
0.0623165
0.0609599
0.0641528
0.0427957
0.039737
0.0417581
0.0404346
0.0598983
0.056717
0.0598165
0.0636388
0.00104168
0.00423396
0.0901793
0.0905482
0.0897895
0.0908561
0.0551205
0.0558529
0.0561961
0.0356653
0.0634937
0.0635596
0.0664487
0.0629234
0.0619483
0.0627412
0.0950355
0.096986
0.0956738
0.0969179
0.0982065
0.0479008
0.0461721
0.0462571
0.047728
0.103252
0.105031
0.104361
0.103779
0.0415991
0.039622
0.0441055
0.0532694
0.0521838
0.0719403
0.0724188
0.0707998
0.0648048
0.0619901
0.0705446
0.0720828
0.120605
0.119017
0.119311
0.120383
0.0818812
0.0784328
0.079525
0.0619689
0.0628465
0.0418207
0.0383273
0.0376272
0.0206555
0.0610475
0.0594378
0.0602337
0.0514962
0.0519813
0.0394454
0.0864086
0.0883463
0.0881472
0.0864324
0.00106929
0.0541635
0.0554682
0.054453
0.0551351
0.137017
0.137182
0.0561376
0.0543341
0.0550084
0.0554515
0.0521122
0.052329
0.0508643
0.0327265
0.0361901
0.0318942
0.0481535
0.0497077
0.0482549
0.0496669
0.0729443
0.070355
0.0618587
0.0438562
0.0431648
0.0441015
0.0428215
0.00745341
0.074519
0.0072499
0.00714144
0.0927698
0.0920432
0.0921141
0.0926555
0.0638024
0.0506524
0.0501573
0.0755962
0.0749249
0.0760705
0.101367
0.0861992
0.069205
0.0702774
0.0680642
0.0549851
0.0493708
0.0515394
0.0524709
0.0370535
0.0768148
0.0761869
0.0119074
0.0150558
0.0531231
0.0519618
0.0522926
0.00118272
0.0521273
0.0729794
0.0744483
0.0739212
0.075857
0.0671615
0.0386516
0.0370948
0.0393002
0.110976
0.108349
0.109743
0.0477994
0.0477186
0.128482
0.129531
0.0494501
0.051156
0.0525995
0.0991131
0.0953974
0.089277
0.0138535
0.0174081
0.0157358
0.0121876
0.011907
0.0118703
0.0098251
0.0152331
0.0517254
0.0602147
0.0614005
0.0557392
0.0552896
0.0568008
0.0702325
0.0690294
0.0738922
0.0734971
0.092372
0.0928844
0.0431363
0.0449503
0.104398
0.118904
0.096678
0.0975155
0.083725
0.0860759
0.0822792
0.0859188
0.0878044
0.0868422
0.0231204
0.0276889
0.0619125
0.0602098
0.0609404
0.0611755
0.0740524
0.0459187
0.0469159
0.0474595
0.0447571
0.0441232
0.0460461
0.0427225
0.000826649
0.0491681
0.0497892
0.0506828
0.0740205
0.0698208
0.0388687
0.0378872
0.0689466
0.0679599
0.0696497
0.0761913
0.0823941
0.073236
0.0726246
0.0732918
0.0727549
0.0340156
0.0925538
0.0915333
0.0424786
0.0419422
0.0430686
0.0413119
0.0616185
0.0622573
0.0610039
0.00623017
0.0068414
0.00533112
0.0830014
0.0845705
0.0805315
0.0406199
0.0394452
0.0491019
0.0470084
0.051102
0.0517564
0.0519525
0.0659266
0.0631985
0.0652202
0.0654238
0.0799008
0.0419838
0.0403728
0.040967
0.0414247
0.111189
0.109304
0.109444
0.110957
0.0721268
0.0598405
0.0620138
0.059658
0.062759
0.0720009
0.0926901
0.0923327
0.0933769
0.0917428
0.0910621
0.0920282
0.0924877
0.0907389
0.0345896
0.0511321
0.0509465
0.0744163
0.0747017
0.000595896
0.00644515
0.0709508
0.0704434
0.0601393
0.061019
0.0592496
0.0585967
0.0599836
0.0710679
0.0695755
0.0067616
0.00813707
0.0564541
0.0548711
0.0559185
0.0555024
0.0742106
0.0888232
0.0878731
0.088453
0.00807283
0.0544601
0.0535791
0.0548506
0.053118
0.0405554
0.0417528
0.0406639
0.0415296
0.0847446
0.0843986
0.0837482
0.0768068
0.0276355
0.0265515
0.0258871
0.0281327
0.028391
0.0295458
0.0744478
0.0767934
0.0764634
0.0769216
0.0449063
0.0468105
0.0461217
0.045566
0.0764279
0.0767965
0.0557567
0.05681
0.0568478
0.0556501
0.0394984
0.0464937
0.0465216
0.0409537
0.0245522
0.021931
0.0429468
0.0443616
0.0725564
0.0719944
0.0727335
0.0987559
0.0981183
0.0977525
0.0328359
0.0315479
0.0322847
0.0582854
0.0589089
0.0593578
0.0578184
0.0347764
0.0432875
0.0427938
0.0440607
0.041966
0.00422151
0.0371445
0.0467081
0.0521819
0.0575581
0.0584882
0.0585731
0.0573975
0.128128
0.0898847
0.0891528
0.0891854
0.0897872
0.0590811
0.0601743
0.0588453
0.0369375
0.0917557
0.0911282
0.0917648
0.0562453
0.0579796
0.0387161
0.0435582
0.0413374
0.0683205
0.0667442
0.0687196
0.0734497
0.0367416
0.0749923
0.0506699
0.0465635
0.0887259
0.0880456
0.0913737
0.0108014
0.00882131
0.0121965
0.0638865
0.0671689
0.0689004
0.0657647
0.0332206
0.0321922
0.0877596
0.0853829
0.0860423
0.087216
0.0914129
0.0908784
0.04378
0.0457342
0.0909851
0.089279
0.0910398
0.0889923
0.123914
0.12433
0.0423686
0.0896525
0.0894635
0.089372
0.0735574
0.0745211
0.0732951
0.0162126
0.0441636
0.0432854
0.0465043
0.0413068
0.0458416
0.0483677
0.0472678
0.0468867
0.0469798
0.045199
0.046123
0.110915
0.0950066
0.110119
0.0995819
0.0239631
0.0804884
0.0795564
0.114047
0.115661
0.0460124
0.0451061
0.0448473
0.046155
0.091
0.0903018
0.120463
0.118655
0.0399022
0.0617513
0.0630091
0.0631531
0.0307765
0.0271688
0.0299319
0.0272147
0.0287056
0.0314907
0.0663742
0.067215
0.0661649
0.0393061
0.0330111
0.0366671
0.0360007
0.0591195
0.0580993
0.108861
0.0990963
0.0541719
0.0578948
0.0569312
0.0545011
0.0645869
0.0216034
0.0232789
0.0251577
0.0203686
0.107764
0.106011
0.108693
0.0335924
0.035233
0.0350665
0.0355975
0.0345471
0.0360577
0.0745907
0.0776194
0.0293516
0.0308373
0.0956301
0.0650786
0.090268
0.0890792
0.0828993
0.00371717
0.073177
0.0719073
0.0724559
0.0458551
0.0181704
0.0386054
0.0857211
0.0771337
0.0748275
0.0920192
0.0791343
0.0799803
0.0790805
0.053209
0.0547276
0.000267237
0.0546514
0.0400676
0.114949
0.113017
0.113621
0.114382
0.0606218
0.0619048
0.0616931
0.060799
0.10281
0.10379
0.102113
0.104362
0.0374784
0.0381064
0.0385966
0.0369154
0.0668252
0.0664281
0.0672394
0.0659634
0.0436524
0.0443842
0.0421625
0.0300698
0.0352268
0.0444103
0.0696683
0.0674671
0.123528
0.122357
0.0554532
0.0267515
0.0944179
0.0949507
0.09536
0.0332254
0.0675312
0.0663254
0.0649627
0.0686892
0.0751308
0.0648446
0.0636433
0.0638886
0.0645918
0.0480487
0.0446577
0.0468912
0.0455613
0.0884479
0.088046
0.0887077
0.0877523
0.0763072
0.0747233
0.0751618
0.075853
0.0711965
0.0708335
0.0716437
0.0703639
0.0355505
0.0331366
0.0350426
0.0335232
0.0457305
0.0441213
0.0650602
0.0624923
0.0618817
0.0647863
0.114441
0.117211
0.11566
0.0733119
0.0668566
0.064438
0.0653011
0.0627111
0.0587106
0.061952
0.0580811
0.0594056
0.0556606
0.0573819
0.0250533
0.0690971
0.0684788
0.000253011
0.0491106
0.0507438
0.0493493
0.0504287
0.0690444
0.0578895
0.066119
0.0495539
0.00404598
0.00423027
0.00406462
0.0625737
0.0637219
0.1279
0.0572901
0.0563717
0.0552322
0.0542186
0.0551696
0.0649937
0.0651471
0.0650143
0.065811
0.0717362
0.0731653
0.0722182
0.0715519
0.0737411
0.0419677
0.0438408
0.0427166
0.000219794
0.0640955
0.0646098
0.109921
0.108411
0.068145
0.0694438
0.0666533
0.0707623
0.0307934
0.0338734
0.0345982
0.0369392
0.118716
0.117563
0.0482835
0.047923
0.0489609
0.0472954
0.0605491
0.0594268
0.0568123
0.110622
0.108065
0.109205
0.109412
0.0856925
0.084857
0.0860158
0.0843891
0.0829643
0.0843297
0.084205
0.0829892
0.0758645
0.076252
0.0749666
0.032848
0.0335371
0.0337741
0.0324935
0.0444532
0.0469062
0.111346
0.0224486
0.0264058
0.0253868
0.00110425
0.043694
0.0425894
0.0429785
0.0748522
0.0731489
0.0811141
0.0819881
0.0807732
0.0822332
0.0296118
0.0260717
0.086644
0.086378
0.0858506
0.0871408
0.116587
0.117561
0.118019
0.116061
0.0448252
0.0457318
0.0442419
0.0464281
0.0748459
0.0751651
0.0746134
0.0428912
0.0439158
0.0442986
0.042396
0.0753196
0.0757927
0.0751214
0.0538583
0.0883823
0.0876192
0.0884963
0.0875735
0.0240281
0.0311855
0.0138817
0.011212
0.0682686
0.00456816
0.00326449
0.00299658
0.0290614
0.0387336
0.0115521
0.000646616
0.000875231
0.00061185
0.000288629
0.0288052
0.000372619
0.000438691
0.0103214
0.01018
0.0510156
0.0113323
0.0103744
0.138804
0.0168415
0.128855
0.0143883
0.0303214
0.0303163
0.00765819
0.000539044
0.0814784
0.0138943
0.00603008
0.00637462
0.00984383
0.111985
0.137028
0.0159817
0.0170388
0.0297078
0.00282221
0.0893249
0.137228
0.0733654
0.122586
0.119148
0.052493
0.00333637
0.0150352
0.000390073
0.000586051
0.000561615
0.0249725
0.0234506
0.00677402
0.0253142
0.00278127
0.0032724
0.0230737
0.000638447
0.0636099
0.0316682
0.138653
0.138533
0.000460727
0.0225119
0.0214783
0.0129134
0.00808095
0.0225066
0.0221322
0.0229678
0.0591516
0.0614128
0.00672443
0.063542
0.137489
0.137144
0.0210759
0.000576723
0.00521754
0.00412349
0.0591731
0.0120424
0.0185455
0.000491844
0.0196785
0.0236987
0.130114
0.00313577
0.015372
0.0133152
0.138381
0.114213
0.00432089
0.0802471
0.0378338
0.00770678
0.135134
0.0253106
0.00232889
0.0351825
0.0340869
0.00888893
0.0203076
0.0211318
0.02296
0.0186005
0.0263632
0.0252258
0.0261218
0.0364943
0.00175815
0.0197435
0.0353843
0.136119
0.0173614
0.118911
0.0156243
0.133683
0.000630169
0.0220905
0.0210219
0.0220324
0.0756409
0.0270883
0.0279582
0.00581686
0.000366129
0.00143964
0.00270563
0.0762867
0.0729764
0.0174641
0.0284905
0.00538897
0.00671308
0.00259595
0.0294427
0.0310869
0.153444
0.00219164
0.137194
0.137618
0.0538419
0.0154626
0.0350789
0.0713613
0.070489
0.0345084
0.0330703
0.0424847
0.0285578
0.00825172
0.00405942
0.0382635
0.0157008
0.0218706
0.0396607
0.040432
0.0374429
0.00516857
0.00828324
0.0637511
0.0627415
0.0367549
0.0336728
0.028297
0.0353131
0.0364582
0.0647722
0.00387742
0.00396773
0.0469345
0.13854
0.00389799
0.00515941
0.00460754
0.00314676
0.00423138
0.00424607
0.00559936
0.017908
0.00384756
0.00437427
0.00584497
0.0042753
0.00578453
0.0304485
0.0297625
0.0370215
0.00447649
0.00624109
0.0355727
0.000571829
0.000895044
0.0307562
0.00298313
0.0207017
0.0185068
0.0242432
0.0231965
0.00774338
0.00858319
0.00555206
0.0072557
0.123284
0.00502366
0.0785146
0.0776072
0.0773893
0.0399427
0.0300014
0.0062903
0.0204195
0.00588204
0.131195
0.0266279
0.00253115
0.0118611
0.0111197
0.0135719
0.0100034
0.00684053
0.140005
0.0260204
0.0283431
0.00410102
0.00325522
0.0605206
0.0683868
0.156816
0.151356
0.00742712
0.018292
0.138769
0.023564
0.0235204
0.000577901
0.00783705
0.0139715
0.117602
0.120138
0.00891854
0.051063
0.00954166
0.00828479
0.00942212
0.00436329
0.0627103
0.0631667
0.0643864
0.00119478
0.0351108
0.135616
0.133591
0.114962
0.0693658
0.0187341
0.0384607
0.0334093
0.0666508
0.139191
0.139068
0.0233448
0.137469
0.00173215
0.00217235
0.00909614
0.0251737
0.0114662
0.0408781
0.0409524
0.0394564
0.0395321
0.0044938
0.0027527
0.00194459
0.161003
0.0557778
0.0116686
0.120914
0.129619
0.130162
0.036693
0.072102
0.0700664
0.166377
0.148304
0.00145111
0.00821177
0.0613709
0.060076
0.00668259
0.00611834
0.0310128
0.0302843
0.0816896
0.0797854
0.0654558
0.0681147
0.0417602
0.0161227
0.014753
0.0723405
0.0365083
0.036202
0.0359924
0.0286598
0.0355027
0.0167396
0.00473363
0.0260542
0.00488387
0.142107
0.0106504
0.0118935
0.0237383
0.0463973
0.0244501
0.0235813
0.10108
0.0941326
0.10943
0.023848
0.068471
0.0171374
0.138159
0.0342244
0.0017631
0.0372699
0.00372212
0.00383848
0.137743
0.030415
0.0302899
0.0159035
0.13774
0.0978467
0.103969
0.0228049
0.0389585
0.039675
0.0785632
0.0794024
0.0369736
0.0332174
0.0360903
0.0339753
0.0356358
0.0829005
0.0733803
0.136068
0.136595
0.0731941
0.0733028
0.0674952
0.00716001
0.00613625
0.0706972
0.0165275
0.136826
0.0639252
0.0659936
0.0678651
0.0548666
0.0521427
0.0542316
0.117755
0.14712
0.139341
0.0691424
0.0678686
0.0685154
0.122416
0.00654585
0.0328744
0.0260375
0.0153559
0.015031
0.0987254
0.024893
0.0426245
0.0475779
0.0238838
0.170532
0.0131002
0.0387075
0.014353
0.0213903
0.0104193
0.0145009
0.0148829
0.121658
0.124102
0.123041
0.027817
0.0283178
0.0116466
0.0682912
0.0154266
0.0164956
0.0328978
0.0294874
0.0290311
0.0461267
0.0720357
0.0398492
0.0426551
0.132999
0.126977
0.00184076
0.00241415
0.138663
0.0165933
0.00822516
0.0124545
0.118978
0.117473
0.138548
0.10986
0.138661
0.13292
0.132158
0.0201539
0.0242546
0.126039
0.126933
0.124821
0.125438
0.0579747
0.0542583
0.0961686
0.0983633
0.125703
0.123481
0.0031941
0.118806
0.117703
0.0428955
0.138901
0.138731
0.138677
0.0970824
0.093775
0.137668
0.13969
0.13833
0.0644518
0.0258362
0.0275418
0.027732
0.063292
0.0623286
0.0634569
0.156035
0.156942
0.0687057
0.0320432
0.0339022
0.160033
0.158057
0.0503367
0.0508204
0.0302682
0.0314159
0.000423984
0.00265587
0.0641542
0.00904099
0.0110416
0.0118739
0.0763757
0.000862991
0.00128721
0.0552949
0.0561336
0.0178663
0.00799742
0.00773746
0.00896352
0.00557917
0.0251263
0.0256674
0.028162
0.113189
0.114908
0.0187906
0.0141133
0.0151301
0.00619225
0.00702996
0.129474
0.127663
0.13651
0.145056
0.154355
0.109452
0.0556708
0.0545443
0.0452297
0.051914
0.0496308
0.067358
0.0746709
0.0434518
0.0423197
0.0197343
0.0210111
0.138671
0.138597
0.242667
0.227104
0.0306036
0.00802738
0.0325662
0.0106088
0.0117705
0.0103319
0.0102127
0.00713346
0.122662
0.0217194
0.0272681
0.0410716
0.0373603
0.0604756
0.0617538
0.0393477
0.0382247
0.0354524
0.0384639
0.0168127
0.0105544
0.0329451
0.0087129
0.0335823
0.136625
0.0129056
0.0137269
0.146771
0.151691
0.0280251
0.0257384
0.0225946
0.00943664
0.0388195
0.0400314
0.0509608
0.0399975
0.0394252
0.0591549
0.0241205
0.000593577
0.0411065
0.0416946
0.016626
0.0130566
0.0155516
0.0825183
0.0833
0.0823929
0.0491569
0.0761811
0.0752568
0.0698477
0.0682813
0.133632
0.0975815
0.0983098
0.0325894
0.0347591
0.0344847
0.0530925
0.0755618
0.0112287
0.13992
0.139671
0.139877
0.135122
0.0490212
0.0207948
0.0223642
0.0290402
0.0257751
0.0580408
0.0343938
0.0366101
0.0515901
0.0559549
0.0376426
0.0337201
0.0985735
0.104217
0.108668
0.0291758
0.0289961
0.0428948
0.0432004
0.0282996
0.0732405
0.0712866
0.0632625
0.128237
0.0377192
0.00531609
0.00597549
0.135284
0.0237979
0.065861
0.00347465
0.022686
0.0211007
0.0230178
0.0196946
0.0259997
0.0558221
0.0109449
0.00901187
0.00811532
0.0953372
0.0327168
0.000956994
0.00152695
0.0654737
0.138259
0.0729855
0.0733657
0.0398674
0.111721
0.106713
0.0195374
0.0203023
0.0448097
0.0424269
0.0441306
0.0685142
0.0209069
0.0219328
0.140028
0.140518
0.0356001
0.0219592
0.020116
0.0350519
0.138759
0.0918614
0.0899611
0.0374842
0.0720767
0.0325383
0.00295881
0.00242
0.00507406
0.0452411
0.0875925
0.00342686
0.183242
0.00243897
0.00456013
0.00693063
0.0042792
0.00360238
0.00377571
0.00268903
0.00358923
0.128965
0.0363905
0.0379024
0.0241883
0.0369215
0.0711259
0.0684368
0.139342
0.139477
0.139264
0.0715079
0.0951288
0.0936783
0.0680518
0.0660024
0.063636
0.03169
0.0317987
0.0668664
0.0649992
0.01409
0.0158187
0.0179823
0.145615
0.150668
0.138163
0.137965
0.048396
0.119957
0.116173
0.0308755
0.0330632
0.137563
0.137242
0.00391674
0.0644114
0.0632453
0.139088
0.138804
0.00909778
0.133903
0.0658665
0.0724795
0.0556408
0.0263433
0.0206103
0.00390394
0.0277975
0.0937267
0.0703942
0.0709733
0.0173918
0.0214623
0.0229532
0.00257281
0.0688291
0.0694779
0.0607523
0.124603
0.125115
0.126086
0.0384414
0.0427538
0.0447462
0.0454196
0.0446206
0.0455261
0.105702
0.107366
0.0450683
0.0394621
0.0402679
0.0391551
0.0422761
0.0431672
0.00136718
0.112644
0.113732
0.115753
0.0157289
0.0141984
0.0658685
0.0656628
0.136674
0.136664
0.0271013
0.0299347
0.126527
0.127372
0.0405404
0.0409106
0.0398175
0.231433
0.18771
0.0800802
0.0783519
0.0125788
0.014138
0.12121
0.0600415
0.0625084
0.131365
0.130572
0.129755
0.0265542
0.0294501
0.138456
0.138169
0.0448946
0.0438375
0.0449335
0.0380804
0.0349707
0.10799
0.107609
0.106515
0.0121991
0.0161774
0.0692471
0.0701098
0.014906
0.138047
0.138226
0.0473524
0.126852
0.12298
0.017164
0.0623646
0.0656292
0.0348711
0.0352937
0.0365068
0.138234
0.118322
0.103392
0.109802
0.115158
0.0210881
0.0738091
0.138202
0.020439
0.00189567
0.00349868
0.0609556
0.0604756
0.0149293
0.0705343
0.0437226
0.0403299
0.120492
0.133707
0.0426875
0.0446386
0.0226331
0.063299
0.0674567
0.0134927
0.0440462
0.0430378
0.0648039
0.00466318
0.00470943
0.121607
0.0472486
0.0476162
0.0460847
0.0353527
0.0407105
0.0366332
0.0493256
0.0505009
0.00693366
0.0513295
0.0507202
0.0448728
0.0426421
0.0424041
0.00814836
0.00719596
0.0907799
0.0898009
0.0887664
0.044463
0.0404808
0.052757
0.0466337
0.0484806