/*--------------------------------*- C++ -*----------------------------------*\
  =========                 |
  \\      /  F ield         | OpenFOAM: The Open Source CFD Toolbox
   \\    /   O peration     | Website:  https://openfoam.org
    \\  /    A nd           | Version:  6
     \\/     M anipulation  |
\*---------------------------------------------------------------------------*/
FoamFile
{
    version     2.0;
    format      ascii;
    class       volScalarField;
    location    "1200";
    object      p;
}
// * * * * * * * * * * * * * * * * * * * * * * * * * * * * * * * * * * * * * //

dimensions      [0 2 -2 0 0 0 0];

internalField   nonuniform List<scalar> 
29884
(
2.78961
0.0879809
0.589876
-2.59123
-0.109872
2.51654
0.110614
-4.41326
-0.830294
1.12602
2.87053
0.701345
-1.22034
-2.37493
0.0285355
-1.93351
-0.326009
-2.20237
-4.43763
-2.96
-3.46828
0.608508
0.342712
3.44812
-1.5097
1.20436
-0.764397
-1.33307
0.40155
0.382999
3.14807
2.71203
-0.766258
5.33394
1.87911
1.74446
0.821401
3.00071
1.79039
0.988977
0.718166
-1.67388
3.08168
5.08981
-3.5511
0.488602
-2.22952
2.10647
0.646323
2.48951
3.14475
-0.260243
1.2033
-0.86403
-2.93073
4.32716
-2.68235
-1.65968
-3.70851
-0.620172
-0.313386
-0.796609
-0.242055
1.08324
2.14103
-1.88616
1.30985
1.54728
0.704169
1.46467
-0.375515
-1.11111
7.92433
0.744643
0.498847
1.49473
-2.78641
-1.32466
-2.60687
0.811417
2.10844
-3.19211
-0.368735
2.10125
-0.240656
15.1267
0.737745
-0.635071
0.144502
18.9493
0.511854
-2.29085
14.963
20.3322
2.72384
23.9392
1.23075
1.34373
0.110476
20.2499
1.60094
1.75814
0.141347
0.532375
0.339299
-1.84776
18.2861
18.8072
3.1109
1.60448
1.24827
23.9606
-0.0876468
-0.220081
-0.210617
1.9419
2.43457
-0.0276402
3.82156
3.33263
0.876634
2.49206
2.05952
2.72733
-0.364019
3.50133
1.16637
1.4477
-0.7465
3.00054
3.21474
2.87813
-4.30545
-2.28267
-0.20937
-0.656699
2.24505
0.33398
0.319324
0.596767
0.327625
3.08064
1.91815
-1.91873
-2.08587
-1.85613
-1.53356
2.48164
1.97463
2.15885
2.68132
16.4971
17.8995
0.69839
0.598354
0.987887
0.54274
1.14152
0.820344
0.59619
0.919304
3.42678
3.60706
2.73043
25.5787
25.4991
-2.43635
-0.993716
1.07947
-5.78579
-2.75742
1.24964
1.26891
-0.381221
-0.229917
2.71057
3.01763
-2.81112
1.96239
1.73389
1.87808
5.29275
5.35426
4.70852
-0.150645
-0.111466
1.27151
1.13214
1.28883
3.21224
0.53726
4.25596
4.82999
-0.260768
-0.34709
2.58523
2.63388
0.744765
-0.0272694
0.158635
0.302397
2.56091
2.49104
1.68712
2.55029
3.90321
0.10631
-0.292321
-0.401351
-0.778303
0.56259
-0.601783
-1.80069
-3.50447
-1.55625
17.332
2.82015
19.1064
0.0924233
21.6481
21.9442
-10.6502
2.34979
0.350673
16.5627
22.0447
18.6987
21.5003
12.0845
-7.18425
4.81735
19.073
17.6758
-7.34534
-7.58102
17.8173
17.9523
2.77442
-3.35259
-3.69747
-4.20927
23.6584
17.8555
-6.72
-4.17833
3.09397
18.0905
19.2184
-7.97688
-8.91477
-5.41982
0.932332
2.82537
2.69179
22.5383
22.2199
21.1589
21.5481
-9.70071
-8.87263
-0.647248
3.21743
-6.86142
22.3076
2.52736
19.4063
-8.77545
2.41419
2.01822
19.5007
1.4597
1.59589
20.9884
19.0492
19.1493
17.5551
18.3016
21.2117
20.9211
-5.32918
-0.891642
17.8848
1.62394
1.74934
3.77827
3.05885
2.72046
-9.6035
25.7163
1.86713
22.1508
17.839
17.8156
-6.08193
-9.82969
-9.85201
3.31986
17.8181
17.9059
-6.21677
-5.19705
18.4895
18.3508
18.5262
21.1851
17.3651
16.3429
6.53155
2.85986
3.08973
3.08153
3.3686
20.7566
-5.76008
-6.1768
-9.69884
-6.24216
18.3231
-9.82032
-9.03227
-9.37752
20.1996
20.7584
20.9761
-10.5089
1.64596
19.9951
20.583
20.6428
21.0224
2.39444
1.97862
1.95929
2.01437
17.8975
17.8303
2.2427
-3.39539
22.0572
21.9939
-6.85306
-3.16555
21.8548
7.97067
0.353228
22.2689
21.8376
22.0039
22.0355
19.5225
19.2043
20.1418
1.50476
1.59957
1.19279
20.6059
21.1886
21.3213
21.3145
21.2343
20.0355
19.063
6.13743
0.615872
2.61576
2.47365
2.72183
2.61395
24.9679
22.8556
-6.14168
-5.4642
0.519064
0.647492
0.485711
3.2091
2.60671
-7.4759
-10.0373
-10.4844
-10.561
11.687
4.02142
3.98482
3.5559
-5.87409
-6.45511
-6.29948
-5.53584
16.3605
17.5359
18.5714
17.0334
-6.83212
-7.30955
-6.72202
17.9164
18.2268
-4.12144
-4.26224
17.718
18.8714
16.2155
17.5233
16.6229
16.3353
19.0228
3.02591
3.23829
2.034
2.31096
17.6465
17.4462
22.1019
22.2749
22.4846
19.5991
-0.0814999
17.5328
17.0938
18.0042
-3.82315
20.655
20.5069
21.395
19.6552
19.091
18.8401
18.3907
20.6986
20.2854
20.4314
19.8581
-3.90802
18.208
19.1717
19.1315
19.4141
-4.16354
-4.45313
19.0483
18.7437
18.2375
18.4629
3.85404
3.47353
4.04984
-6.71935
-5.70773
-7.28819
-6.73793
-0.154742
-1.46464
14.2944
14.133
1.11808
1.16969
1.15324
1.08291
-1.27487
25.2119
6.60119
5.88672
0.678928
-6.9724
-6.5276
-7.06283
-6.58306
16.2288
15.294
15.6221
14.4894
1.58712
1.45504
1.59614
0.952394
0.995161
1.11209
0.688619
0.904126
0.830678
3.62989
3.41678
3.49775
3.89758
-6.28165
-5.74405
-6.30947
-6.41745
3.17473
2.86398
3.03632
22.0483
22.2645
22.1047
21.5547
4.16551
4.93877
4.39123
23.7631
25.2481
1.40034
24.8905
10.7948
0.869949
0.842372
23.8538
23.7013
0.881842
0.908956
0.91332
1.36171
-7.48828
0.938775
-0.506422
24.0552
24.0925
2.35346
19.2377
0.0530097
1.01802
-4.13636
-5.7365
-1.76378
-1.97142
22.8517
-3.52306
-3.98821
-0.230639
2.00201
-4.97664
-0.0284492
0.132343
0.146404
0.278437
-1.8156
3.09286
3.14947
-2.71153
-2.60948
-2.78274
-0.151113
-0.431738
1.24045
1.28364
1.09629
1.04242
4.62794
22.4876
2.23918
2.21332
-0.0220694
1.16298
-0.444728
0.970111
1.04366
1.07788
25.153
1.43283
1.37335
-7.71045
-8.41655
-7.49736
-2.33739
-6.37448
-4.83806
-0.416283
-0.362566
-0.390667
14.5815
13.7703
-2.96795
-2.61318
-2.30569
-1.67682
7.22972
-4.61089
-0.953713
-0.787421
-2.34927
-2.64367
25.0039
0.236807
-1.10352
14.3963
-0.12447
0.196331
25.6677
18.706
19.34
2.1999
1.11899
1.18858
-6.56934
2.52659
6.33053
7.08858
22.2896
22.1026
3.9611
4.46357
4.27066
1.05211
0.999466
22.8611
1.2983
3.53197
3.75143
1.89068
1.69898
1.55737
2.44314
5.645
5.03079
6.18833
5.54998
2.82147
0.477665
1.68256
-0.743868
1.71115
0.302534
0.772346
0.900443
-4.95696
-6.10564
-1.47492
-0.0914399
-0.470335
-0.966745
9.2963
10.5328
19.4198
19.8391
20.2387
21.45
0.85416
3.0442
2.83946
0.644567
1.28557
17.3768
16.6807
-3.61454
-3.87234
-3.15376
2.03223
0.935339
3.14135
3.49817
6.90648
3.73965
4.37846
-9.41455
-9.71188
1.14195
1.31045
1.11863
1.34537
-2.55786
12.7424
11.9996
11.185
1.63676
1.73551
1.84605
1.81138
1.95038
0.998886
2.87316
3.04576
-3.3746
-3.23191
-2.87104
-2.04172
-2.28293
-2.5513
-1.31324
0.597849
-1.91602
12.894
11.9835
10.8357
22.7155
22.6095
4.93386
5.38855
19.766
20.0035
-0.603634
-1.09394
-0.335132
18.998
19.2929
8.16468
7.50372
22.8279
16.2501
-8.21977
7.28591
3.5286
5.5073
23.2401
4.38311
-24.6388
-8.55003
-19.0547
-1.39461
22.7503
-6.27224
-12.3067
19.6334
-23.1485
-5.88673
-6.05887
4.7176
4.86221
3.79215
-0.701692
-1.26465
7.06999
-4.48622
-4.88517
-9.10999
5.40606
4.84191
-4.7723
-4.03161
-3.65797
-1.24026
0.173817
-0.0884837
18.7681
3.84132
4.55046
-3.57678
24.379
16.9774
16.6687
23.4157
-15.9514
4.31111
-15.3217
-11.8583
23.7198
0.818087
-0.399341
2.91037
20.7283
-12.0257
-11.6322
4.58589
-3.4173
-2.44675
-3.23735
-2.02252
-4.30022
3.09722
13.4056
-12.3995
3.88204
18.3937
18.5465
1.80674
1.70355
-10.6172
-2.03457
20.0338
-7.66118
-9.36021
-1.05663
-0.0096526
3.85803
-34.7166
-3.07014
-0.896186
2.69848
17.0416
17.1008
6.07973
-6.45447
-6.67692
-7.43631
-34.9343
0.394031
-10.7635
-10.4739
22.5264
1.07318
0.571321
22.8247
22.641
-13.0114
-13.0642
0.689726
-11.8934
18.9791
-0.348643
-0.900496
2.40423
-7.44697
14.4391
-0.205165
-0.455774
-9.59907
-3.97532
-2.79948
-8.36833
25.2735
15.7516
-11.8339
5.9911
5.6167
16.4525
16.6243
-4.47565
-4.15294
-13.8582
-25.3692
-6.04332
-10.2436
-10.2709
19.2298
-3.32842
-13.1098
22.8766
-18.4275
2.13942
-5.92913
-6.12244
3.37677
3.30339
0.0292873
15.9824
4.11993
-25.4947
-12.074
-12.2663
2.86969
-10.1521
-2.00756
-0.666986
-13.8277
-14.0218
6.48486
16.8965
21.494
-3.09663
2.15637
2.34041
16.1365
16.0745
-2.19422
7.67657
-1.59654
-1.47706
-6.25643
3.51758
0.662265
0.228053
8.11603
9.28586
18.7775
22.5047
22.7253
22.6894
-3.35424
-1.77316
-9.75503
17.7411
17.9265
13.2682
1.05476
15.4013
23.0846
14.8895
14.4023
-7.56301
2.17953
-0.904335
15.8845
15.8574
-4.60861
1.31667
-12.0893
4.45319
-12.4984
5.13523
4.97539
19.6152
1.30857
-16.7177
1.03785
-11.6639
-0.829337
0.0575739
15.8651
15.5481
15.3748
4.8397
4.27114
2.32228
-9.43506
-9.52714
16.4739
2.00355
1.62722
1.59184
0.166256
-0.185518
3.33848
-9.40818
-10.2652
-24.8502
-3.63147
-3.07331
-2.90149
7.92946
7.71737
5.68292
6.01362
-3.88669
-4.30467
-14.056
3.9085
-2.12596
-2.41721
-11.4816
6.90632
-22.5625
15.6646
-11.8692
-11.6455
-20.4346
4.13299
-12.4005
1.81413
2.12175
-12.4862
-10.7771
0.334237
16.3656
-17.1873
4.66201
5.05351
-12.3029
14.918
-10.7813
24.6032
2.83102
3.29502
3.991
2.33016
2.90768
0.646599
0.854384
1.7022
3.5495
-17.6728
-16.4545
6.13007
2.53814
1.77735
-0.172596
-1.30777
-1.62572
1.81047
-8.38452
-9.48494
5.11222
4.80846
-4.40971
-13.1185
-13.3931
2.65469
2.93061
24.349
-7.18222
-6.73504
-1.99289
21.9318
-2.10778
-1.79904
-6.12355
-5.86953
1.41536
1.68049
2.51661
17.3165
17.7931
-11.4631
-5.08104
1.75868
-11.5592
-11.3891
-11.6822
18.7754
18.532
-11.1394
2.37933
-19.0767
-19.4414
6.1501
5.65767
-12.2168
-11.9748
-12.1215
15.8342
16.0636
-5.93272
-12.296
-3.10392
5.05113
-8.16153
-8.3241
18.5591
-11.9011
-8.16864
-9.91316
4.94068
23.2487
0.523075
-0.0785752
2.85466
2.28905
-15.2914
-12.072
-11.5156
-10.0167
-9.19821
2.59447
2.57004
2.46924
-12.7111
-11.9336
18.2212
-4.92401
-4.61786
1.75825
-8.70697
-8.40464
-4.16652
-3.61813
2.31954
15.8776
15.8272
-12.0667
-11.6605
3.9934
4.3072
3.86456
4.76902
5.46048
15.9539
6.50514
22.5357
-9.27906
-9.67686
-9.126
-9.03587
-7.58939
-8.73456
-12.286
-12.316
-1.08421
-1.12322
-1.29229
-0.553963
-1.94707
-6.03565
-6.42153
22.9178
18.5193
-11.9992
0.605151
0.562718
0.154813
12.755
-0.164099
2.27287
2.56062
0.656585
0.799707
1.09792
2.15006
2.90557
16.586
16.2404
16.3654
16.7255
-2.40425
-2.94762
18.2041
3.25164
3.21327
3.4507
-0.116001
2.56263
17.8937
-5.16217
-4.6022
17.5095
17.8785
17.0022
0.944299
-2.62785
-2.402
-0.206575
1.81188
2.20885
-0.929498
3.42701
16.3135
16.3634
16.1471
-7.78136
-8.37965
-7.5313
1.07059
16.2725
4.52164
3.85679
-0.373998
22.4163
7.54785
7.39259
7.54415
-10.1862
18.9327
-12.1588
16.9559
17.1329
24.1164
25.6165
2.63852
-4.52112
2.76268
-5.10144
-4.72687
0.105923
15.3975
0.478185
4.60074
-20.1845
0.120012
0.463744
0.668293
17.4559
2.5891
2.59014
2.65892
3.93036
4.71391
23.746
17.0898
17.2648
-0.390651
-0.154218
0.212233
21.1083
22.3308
3.33261
17.7939
17.9777
17.7918
17.243
16.9785
17.1874
2.13451
18.1504
18.2786
-12.6188
24.0942
3.67889
4.00532
0.20143
0.253647
4.99578
0.407108
-0.0867779
-0.585393
2.47945
2.38127
-9.90459
1.41116
1.70214
1.76738
-0.032464
0.33497
8.08734
2.46891
6.51038
-2.25542
20.6517
22.6505
-1.27239
24.3198
-11.4153
4.18279
16.0509
-5.92469
17.3644
17.6414
14.6337
14.5995
1.68601
0.986308
-1.84344
-1.72291
-1.90633
-0.312779
0.0760378
-0.171606
6.6547
6.43849
21.1458
21.755
24.5698
-1.47076
-6.79631
2.86345
3.07008
3.03077
3.46834
3.52121
16.0189
15.8534
1.46227
1.41455
-1.20199
0.193052
0.00740923
-0.41993
17.4208
0.391149
1.5219
1.8369
2.46558
1.93932
-13.4752
-13.8057
-13.2611
24.6182
17.3541
16.7444
17.5848
18.0233
5.97677
6.23457
20.7723
2.07825
2.29757
6.02669
-10.1707
-10.0827
-9.15214
16.3741
16.3544
16.2085
-10.2485
-10.4373
0.480155
-12.222
19.0892
19.0198
13.6064
13.4652
2.65478
2.84013
2.47073
2.3178
4.82573
4.63999
14.5243
-10.3466
-11.0001
-11.4677
3.2896
2.92625
25.6327
18.1279
18.0484
-4.91513
-5.19808
24.9503
21.6794
22.0994
22.8123
22.8508
-4.0265
-4.50282
-14.1797
-12.7018
-16.1504
-11.9892
22.5265
-8.45116
-8.6787
-8.73831
-10.3337
-10.2251
-9.82487
-8.97464
25.0779
25.1901
22.3009
22.1518
24.8076
21.6391
18.0429
17.7223
20.5061
-7.61146
23.6885
2.06442
1.86902
2.05807
3.18036
3.16809
2.70095
1.36357
1.54148
1.85823
2.3712
5.39788
-10.1725
-10.1445
-9.62498
16.172
15.7145
16.1276
1.2437
1.25547
0.901027
2.227
2.38757
2.63104
7.95793
3.16088
3.46291
3.29958
-0.950538
-0.613044
-12.5601
3.0179
2.44069
2.59786
25.1351
24.9457
2.54905
2.57126
2.87261
3.17836
-11.2929
1.53007
1.46023
0.772779
1.80662
2.21818
2.2935
2.11286
-2.6011
-2.40266
-2.75393
-2.19852
-9.81918
-12.2482
-12.1666
-12.1204
-12.072
18.2655
17.4926
0.446452
1.17041
4.21045
3.32454
-17.5001
7.95213
-11.7346
-12.6071
-5.71099
25.4094
-11.9319
-12.3131
4.12546
4.70269
3.33545
0.875214
1.04446
22.4019
-7.57762
-7.58446
-6.70975
-8.94957
-9.35312
-9.14329
-10.9927
-11.0929
-11.0847
-5.65883
-5.96986
17.3599
17.0065
0.0378082
-0.0828852
0.580122
25.3482
20.3774
23.1775
13.7237
-11.6498
-11.6143
-10.5415
-11.3524
-13.535
17.1083
16.8752
16.6526
-6.90447
-6.13719
-6.52488
-5.86993
-11.778
-11.515
-11.8184
-11.8279
22.4636
22.8056
22.3781
22.3543
-9.00722
-8.18687
-8.81123
-7.92167
13.5809
-6.22819
2.55567
2.43741
2.17205
2.50446
-2.33917
-1.92752
-2.10093
-11.5422
-10.9199
-10.3263
-10.924
0.457398
0.627117
1.01194
2.35849
2.4582
2.20589
2.13214
1.79975
17.005
17.4091
16.9246
16.536
2.55284
2.40864
2.38911
2.44332
-10.028
-10.3779
-10.5339
-4.53052
-5.29051
3.35633
3.70214
3.10177
-12.8972
-13.5013
-1.2068
-1.05701
1.38467
1.87234
0.879775
1.43898
0.723123
0.145037
0.679596
-5.38889
-5.53471
-7.24439
-7.69728
-7.26024
-7.32975
15.4922
15.7331
-1.25852
17.2449
17.2489
19.1109
0.952936
1.27313
1.62042
1.35207
17.2499
-3.49352
-2.67963
-2.59758
-1.99297
2.66563
2.32788
16.0045
16.2157
15.8317
16.0492
-3.99063
-3.60492
-4.42382
-7.61172
-7.91182
-8.08916
17.2392
17.0015
17.802
17.6426
-8.0033
4.89304
15.436
-8.00466
-8.30755
-7.04135
-8.00168
-23.4306
5.87062
-22.9995
-22.5893
3.93227
4.23041
3.47206
3.68382
-2.15704
17.0807
17.3548
3.57252
3.38684
3.80384
0.0234321
-0.295794
-12.244
-12.2631
-12.2293
-9.36122
-9.1744
-9.35037
-8.81656
18.7449
5.75576
5.66067
-6.08558
-6.29643
16.3882
16.5536
16.4116
19.2933
-5.16465
4.60362
-0.58918
-0.86694
-0.680317
0.938154
-9.99682
-10.4967
-9.52138
1.66176
1.79194
1.44588
17.8079
17.9026
2.81582
2.43695
-8.22891
-7.88119
-8.65232
5.11315
4.83336
5.34176
-7.36875
-7.61587
-7.29507
-7.68308
-7.89389
17.7642
17.2326
17.5392
-4.40817
15.1776
14.9296
-2.21605
-2.35427
-1.24354
2.05125
1.41649
-12.5374
-12.4903
4.10167
3.79883
18.5067
18.0661
4.30743
4.07129
3.18907
2.76774
1.70786
1.73287
1.16067
1.17277
1.63202
1.63452
17.6796
17.4597
0.13623
-0.40196
-0.561535
-0.206723
-0.870225
17.854
17.697
17.5604
22.5456
22.6617
22.2957
22.6678
16.695
17.526
17.5562
17.3858
0.11864
-0.354011
18.2373
18.3474
3.0331
3.07109
3.49304
3.79922
3.63443
-12.4321
-12.4244
-12.2702
-12.1286
19.6734
2.86335
2.67447
18.9218
18.7754
18.4784
18.84
-0.600599
-0.550412
-1.02172
-6.37276
-6.56743
-6.11083
1.81081
2.29388
1.32324
17.2949
17.3725
17.6178
17.7293
-4.44026
-4.1255
-3.81108
14.3407
-13.0744
-12.7508
-12.26
0.362611
-8.15245
-9.0787
-8.62316
-8.74149
-0.334333
-0.593475
0.233962
-0.19138
2.72272
-11.0976
-11.0489
-10.4726
-10.8393
2.53177
2.58095
2.33242
2.17078
1.96877
1.96943
2.26814
1.98628
1.66048
23.1775
17.3485
17.4614
-12.455
-12.5467
23.679
-6.64732
0.596288
0.108416
-0.987885
-0.673207
-1.73892
-2.25364
-1.58588
-11.76
-11.272
-27.3229
-26.4538
15.2723
15.5784
15.8057
15.9688
4.60034
2.89544
2.6281
3.01579
-25.915
16.0059
16.1344
15.4399
15.5697
-9.37338
-9.03929
-8.75363
-8.10172
1.08061
1.13276
1.03166
4.63809
-9.75795
-9.50387
-9.81988
-9.81356
-14.2401
-13.6384
-12.4532
4.44532
4.25445
5.26914
17.7208
17.3363
17.3522
17.3135
8.95945
8.94531
-3.1323
-2.1896
-1.73598
-1.80209
18.2864
18.1235
17.9557
-8.93197
-16.107
-17.5062
18.6049
18.4655
4.745
4.71993
4.9424
2.54984
2.52612
2.71759
-12.5149
-12.7122
-12.5163
15.601
15.2946
15.4979
15.9597
22.4873
17.1732
17.5243
16.9717
17.1864
-5.95386
-10.8412
-5.36181
-5.66466
-1.67792
-1.49887
-0.597491
-0.828936
3.16331
2.58175
2.45152
2.40619
2.89064
-1.08439
-0.00462528
-0.746476
19.22
3.54258
3.3925
3.47874
-1.80669
-1.04248
-9.75073
-9.84889
-9.7985
-11.0329
-10.3886
-10.9474
5.80809
23.0897
4.46763
21.7261
21.8144
2.42046
1.92013
2.50519
-6.21221
-6.18453
-6.47607
0.45114
-11.619
-11.9603
-11.8819
18.2943
18.5717
1.71808
1.38979
1.17574
1.4697
4.42904
4.46626
21.7223
21.7863
1.69731
1.37912
1.96518
1.80442
2.39571
2.69774
18.2194
4.5214
4.6977
4.46676
-1.12066
-0.638091
-1.06519
-21.3493
-8.25304
-8.8257
-9.05665
-8.63317
18.1684
17.7295
17.5573
17.8636
-5.94345
-6.92408
-6.37494
-10.8179
-12.2289
-15.5904
-12.1543
-18.7973
0.293386
0.138215
-1.04058
-0.788685
-6.8849
-7.44222
-6.9009
-6.11268
3.88031
3.67303
2.9211
3.26298
19.1467
15.1085
14.8196
15.1423
-7.32065
-6.92222
-7.03433
-7.2955
-14.2445
-12.8062
-9.90849
-9.80745
-9.00474
-5.68741
-5.36259
-5.58428
-4.7122
15.2586
15.4764
0.561215
0.515234
-9.92048
-10.2994
-10.327
-10.3837
0.88739
-6.68147
-6.2776
-6.75503
-6.4332
2.23866
2.43267
2.37417
22.8149
17.6884
-11.8086
-11.2594
-11.3591
-10.673
1.62724
1.86228
-11.2391
-11.3344
3.70578
19.0287
2.12762
1.85427
0.804285
-5.9709
5.31805
5.05349
5.16471
-7.14097
-6.86622
18.5461
-9.55751
-10.6767
-9.85317
-12.772
0.128895
0.528421
0.229135
21.5257
21.4746
25.721
-4.79744
18.3786
2.48907
2.59766
2.08377
2.39595
-0.567642
-0.0723746
0.678843
0.305352
2.50476
2.52246
2.60838
2.5919
-10.7665
-10.1466
-9.60699
-10.4444
2.04479
1.96015
3.08336
2.11849
-7.62721
-7.12282
-8.19638
-13.6548
23.2549
-7.82261
-11.654
-11.1626
1.01928
0.997003
20.4253
-15.1062
2.55636
2.99571
2.70269
19.0313
0.0551715
-0.329352
0.202023
0.810284
3.61968
1.00311
0.537985
1.474
1.75028
21.6887
21.8263
21.1215
21.4238
2.11444
2.21992
2.36504
1.83856
-0.228413
-0.553662
-0.879568
-0.451679
4.00661
4.22419
4.34693
3.98411
18.2635
18.1886
17.5237
17.8326
17.7861
17.9031
-8.66869
-7.88264
-9.06772
-9.37034
0.190355
0.0503275
-0.247709
6.29303
-12.4284
-12.5351
-12.275
-11.2371
-11.0972
-9.83106
-11.312
-12.2043
-12.5132
-12.929
-15.6838
2.08218
1.58521
25.7333
17.8165
17.5253
17.3658
17.147
-14.0974
-13.0223
-12.5932
0.618734
-5.76079
-6.12522
-5.58509
-11.8452
-11.9588
2.11118
-11.4695
-11.4328
-3.30619
-3.87988
-4.22321
-9.24352
-8.26432
-7.92932
-8.88637
-12.494
-12.5165
-12.3295
7.83734
6.83847
-8.87466
-8.00089
-8.53025
25.7459
-7.96676
-7.66948
1.21797
1.32381
0.317162
1.41132
1.25686
1.48089
-13.3338
-12.0773
21.0162
21.2316
0.712611
1.20198
17.4424
17.5785
17.5667
17.8155
-4.82414
-11.2972
-11.3335
4.92544
5.05857
4.39249
4.95457
0.83419
0.818167
1.21832
0.960323
0.597619
0.687295
1.11588
0.900748
-0.500259
-0.41542
-0.544616
-12.7774
-12.4977
-11.73
-12.3113
-10.9222
-11.1008
12.7474
-8.6909
-8.69972
-8.78357
4.97953
18.279
18.4791
18.4287
-0.860643
-0.977978
0.262422
0.425938
0.397624
0.83412
-10.708
-10.0901
1.82691
2.05257
1.45971
1.81316
1.55617
1.98506
2.03901
2.32298
17.609
17.5851
18.0411
17.9302
-12.476
-12.4524
-12.4353
18.7821
18.5458
18.154
18.4418
4.77143
4.8775
4.53985
18.5973
2.1998
1.75556
1.78644
1.7148
-18.1068
-16.1921
-19.9792
24.7462
-3.82428
24.946
25.1378
25.2055
23.1354
-14.6906
22.3606
23.1044
23.1587
22.6859
25.7722
20.417
25.5272
25.5578
24.7459
24.7888
-12.2702
21.5239
21.4819
0.496596
24.0379
-6.10019
21.1435
23.3172
23.3254
-7.2622
23.3335
0.974922
24.5467
22.9143
22.854
21.4297
-1.26173
-0.0291429
20.6575
20.5262
-16.4018
24.9226
1.17063
2.06093
-1.33759
5.73066
6.66984
-7.34016
25.4472
22.006
25.6766
25.6272
25.5795
-14.9284
-15.4549
25.2146
-15.52
23.3199
23.2063
22.6972
23.6305
-4.36097
-16.3596
0.456915
0.578404
25.7911
-19.2218
-19.7335
21.2351
-26.5826
20.3602
20.3603
20.348
2.54873
2.43315
25.2012
-0.792901
1.33176
1.53562
-19.3184
22.3782
22.3359
25.3876
4.3091
23.9165
21.5931
25.4632
21.134
22.9084
2.64963
23.1898
19.1137
19.1506
0.609611
6.57419
22.1248
17.5362
23.0501
24.9938
2.17644
19.8263
25.2138
23.1154
23.1643
25.0736
24.298
24.2343
23.6079
24.0006
23.9164
20.7829
20.6601
23.155
20.181
23.8373
19.4384
0.806143
24.2789
11.1828
20.3196
-1.26542
23.408
23.4847
23.6462
23.7077
6.02528
20.5805
20.4721
-27.2922
25.5703
25.5855
23.2298
-0.541141
-0.533276
-21.806
23.7517
-28.261
-27.3199
23.5833
17.2614
17.4594
-1.38625
18.4142
0.166727
0.107837
18.0693
21.8789
23.1337
-0.733192
-1.235
23.2412
22.2412
3.83988
20.3948
24.8737
21.6748
19.0725
21.892
20.714
-10.7472
-11.0112
-10.6533
25.2637
22.6202
-12.5847
-12.681
4.07859
3.96497
-14.0939
-11.6377
-11.1699
0.57971
24.6788
24.3338
-5.85171
1.34818
22.4006
22.2785
22.5519
25.0444
24.9695
22.2126
22.0526
23.893
25.0779
22.026
21.8524
24.3453
24.2705
23.6091
23.6024
4.81471
21.7343
21.5026
23.2946
24.1535
23.6925
21.7097
25.4652
18.9648
19.1353
23.2783
23.204
22.7436
24.3454
20.9707
20.8401
1.71709
21.3905
0.0460647
-0.0772361
-0.0674214
-13.3477
-2.87677
24.0649
-17.5479
22.8548
2.21611
19.2723
25.3323
22.6669
22.5063
22.5755
24.6683
23.807
1.01408
10.5601
9.74755
21.5386
21.6845
-1.14844
0.970674
-3.28605
-3.08621
23.5169
21.6029
0.310448
18.8348
19.198
23.997
23.1689
-22.5327
7.76814
7.14408
22.0692
-4.88523
22.5603
22.333
22.3734
25.3782
-6.03462
-6.94396
-6.7716
14.5888
23.2594
-0.757016
-1.02655
3.69744
0.201314
-20.9086
19.1084
19.589
0.920163
0.736333
0.574437
20.0838
1.73193
25.5457
25.4913
24.8108
22.8817
-23.7507
22.7501
22.7859
22.8539
22.9268
21.9285
23.4257
23.5023
-2.04079
-6.52952
21.5513
8.53773
3.24922
3.26376
19.2699
-0.373014
-0.515633
-3.22465
-3.63177
25.2001
-26.2506
-1.08659
-1.53423
22.4436
22.5724
20.1901
20.1138
0.402493
0.201326
-0.450241
-0.769624
22.616
-8.54898
-8.26139
1.0741
23.0362
22.9901
7.71131
23.639
23.1964
21.7521
24.3019
19.7831
22.6984
-1.9829
22.0354
21.8164
-18.4708
4.65943
19.8031
-18.593
7.65611
8.28288
7.55786
-18.448
1.76885
4.83754
-4.77723
19.6652
25.1507
23.0726
22.7171
22.5908
-2.08823
23.0736
23.107
20.08
-5.01977
-6.58555
-5.30789
20.1084
19.1161
19.0032
-0.137779
0.125823
-13.9345
21.5511
21.4766
21.861
21.2749
-0.989376
-1.26827
3.42825
3.11381
-1.482
-1.30563
0.794829
25.0059
25.0654
2.12435
24.2504
-6.49063
-1.17648
-1.04402
-0.764598
-11.6525
-11.2589
-11.4722
0.0749468
-4.07871
-4.63601
1.83455
1.0143
1.14582
0.356216
2.52739
-4.29905
-4.28407
24.2861
24.2557
0.652587
20.8402
-11.0734
-11.3064
-9.94974
-2.34202
21.8528
18.5149
21.6526
9.70784
24.8253
20.0134
20.0014
1.00736
1.00026
1.17162
20.5254
20.4787
24.6891
0.402505
21.4168
9.76469
20.4671
20.4363
19.9461
0.570368
-1.26884
-9.37562
-9.58692
-4.49571
-5.01318
23.511
23.439
1.40319
21.1519
22.7016
24.5724
-0.240056
-0.666233
0.758567
-5.132
0.667231
1.64752
1.51691
24.323
20.207
2.59674
2.49391
1.95131
2.32969
-4.04508
-3.08607
3.37458
3.3915
7.94133
8.72273
25.4453
0.814069
0.47547
-1.86475
0.232237
0.292861
0.296147
-0.859048
-0.498272
0.701617
0.615145
0.382401
-0.880937
19.9574
19.8528
19.1836
-6.61715
-6.4836
-7.24531
-0.999597
-1.13618
-6.34892
-10.1359
-10.4439
-1.91342
-1.5162
-3.73301
-3.90111
19.0664
19.5216
24.3336
23.5304
3.98131
-6.70432
-6.89408
-6.85541
-0.390295
23.4388
23.3324
-2.97912
-2.48037
21.5127
24.2095
22.0623
21.9692
24.9846
18.3872
18.5818
18.4254
1.06902
0.952209
21.3372
24.6672
24.6226
24.89
24.8625
7.37575
8.62808
-7.6305
-6.62485
-10.1944
1.70799
-8.92744
-8.42382
-4.82868
-4.854
-5.19935
-5.1388
-5.19934
-7.84267
-8.28238
21.2032
21.1176
0.592303
0.67687
-0.743564
-6.05434
19.8503
24.5882
19.8597
24.5905
21.8598
22.0014
21.9348
25.0436
-5.64035
-3.2271
-3.43501
-3.56136
-3.63094
-2.69978
-2.55362
-13.0443
-13.4483
19.4968
7.02
21.6863
21.3688
7.42941
20.5311
-12.3044
-0.00146634
23.936
23.7328
-0.712307
-0.736549
19.7836
-7.39778
-7.31704
25.0157
-10.2427
-9.5158
-5.12
18.0483
18.0444
-2.27481
22.5406
23.9775
18.111
18.1326
19.9188
19.8222
19.5788
0.786537
0.869388
0.751259
-6.70048
-1.06143
-0.936903
1.47413
1.05895
2.64762
2.39244
2.51688
19.1688
18.9766
19.0196
-3.6427
-0.730377
24.3309
0.928095
0.933237
0.969993
1.72386
-11.233
18.4267
19.0724
18.7304
19.405
-3.70654
17.5338
17.4358
21.2722
20.875
18.0456
5.01508
15.4696
14.9642
14.4852
23.3752
23.2675
-3.18037
-3.45424
-1.83848
-1.12115
2.69835
-5.77931
2.19514
23.1253
25.2252
25.1672
1.90489
22.5197
-0.31424
-15.9703
18.5795
18.3945
18.3432
19.8438
20.0027
5.00314
-6.56452
-6.40112
-6.43569
-0.262311
23.1439
23.7991
23.3761
-0.160148
0.748831
3.03052
3.26995
17.6312
-0.545885
-1.08894
24.0232
24.0241
22.3607
22.4593
22.2269
-0.644929
23.8876
23.8711
0.922539
0.175867
17.2769
22.2663
22.2146
19.6997
0.985432
2.49859
2.13485
19.2965
2.76274
17.8602
22.5398
18.6447
18.8133
22.2492
-0.68143
22.3398
-3.45864
25.1035
19.7
19.7339
25.3484
25.3834
25.397
25.0437
22.2379
1.80019
22.7817
22.9211
-10.4054
19.0589
1.72578
0.898732
1.15718
1.06261
1.20361
-1.36979
2.18744
2.09482
-0.364726
-0.743029
-0.991634
19.738
19.681
-1.98463
-2.22071
-6.92292
-7.11092
-7.18415
-1.94573
-1.82944
1.56904
1.62616
-4.15392
9.46415
10.392
17.1572
16.9708
1.94882
2.15423
-6.26134
0.727498
0.175538
0.835211
0.810911
21.9809
5.29097
17.6694
17.2104
-3.82388
19.5776
-17.8118
24.9477
0.407296
-0.236182
2.15075
2.36524
-5.5691
-5.67202
-5.38144
23.4838
15.029
15.7689
16.3491
1.73958
1.51206
1.35107
23.0025
18.4203
18.1053
18.0194
17.9609
3.02913
2.5423
2.52461
-7.78112
18.8206
18.7875
18.8841
17.637
17.5807
25.3407
1.43188
1.7052
1.44064
-8.72685
-8.58844
-9.34236
-8.48992
2.77604
2.94247
18.0904
17.8563
3.04885
3.11819
18.721
18.5015
18.5373
-3.42082
-3.04668
0.897002
0.796693
18.8147
18.9208
0.330564
-9.69777
-10.1164
1.89457
1.69067
2.05529
-9.06144
-9.34375
0.781405
0.732455
18.2626
18.5073
18.2434
-8.4829
-8.45311
0.384612
0.620132
0.278925
-4.5631
-4.25079
-11.3215
-11.5761
21.9545
1.68547
1.55454
-13.2627
4.68489
5.01222
20.3158
20.8142
20.3538
18.5055
18.6382
23.018
1.53083
0.452238
0.193469
0.788333
0.948544
21.1179
3.30929
-0.111485
-18.213
11.5159
11.9913
-7.70394
-7.48633
24.6492
-1.6112
5.62743
5.59114
3.99819
-9.60036
16.8035
16.3655
-10.3154
20.1954
19.8475
21.8755
18.0908
18.335
-1.74983
-6.25609
-6.34823
3.33873
17.4524
17.5153
17.5555
19.341
19.8582
20.0111
21.5805
21.6805
-4.4311
21.9442
21.8351
17.4318
18.0433
18.0203
24.8276
24.8847
1.93065
1.88363
1.77884
0.984059
0.381621
21.0579
21.5286
21.2174
25.3373
-11.8475
2.32749
2.34033
2.81709
2.93077
20.576
3.95416
3.36774
3.50193
-6.25152
-3.35138
-2.22804
-6.59322
-6.68483
-0.0577218
0.0360992
-4.62191
-4.03223
-11.1375
-10.7811
-11.1274
1.08942
16.8193
17.2028
-0.440842
-0.562093
-0.105341
18.5758
18.3944
18.2922
-1.23705
-1.13822
-1.37873
-11.2604
-23.909
4.83907
4.98012
-10.9855
-10.7015
1.26443
1.61558
18.2223
-10.6445
-10.6114
2.82844
2.72212
0.280899
0.319292
6.10479
6.67864
7.65296
19.3485
19.3253
-14.6819
18.233
18.3419
1.54057
0.820681
1.22954
1.37002
0.78933
-4.35195
-2.80459
-3.52417
7.30908
8.09066
9.47197
8.95749
19.4029
19.6459
-1.36039
-1.47688
1.33857
1.54314
22.9992
25.2879
18.1448
18.0671
20.3459
-4.95962
-4.7322
-4.72699
-0.689817
24.5222
16.785
16.9288
3.08642
2.92083
20.9568
20.9622
-10.6909
-10.7168
1.73071
1.11066
0.864131
19.6041
19.7309
4.12227
4.52332
18.8845
18.98
22.6152
22.4557
-22.2978
0.1793
2.56286
2.46723
-3.074
-5.11369
22.8652
-16.3042
-3.36767
-9.85147
-10.1619
-3.07389
-2.36686
-5.82286
-5.76982
-0.538991
-0.464099
-0.908836
2.63454
2.86098
0.312022
0.810096
0.607051
23.4004
22.5926
25.4065
22.0167
22.1053
21.5748
22.039
1.32516
1.83322
1.38408
-4.47376
-4.46236
2.72459
0.78114
0.640082
0.703168
-3.66156
-3.60727
13.8418
21.6642
8.28605
17.6901
17.3835
-12.9234
8.0851
-0.876253
8.94277
-25.363
11.7425
-12.085
-13.8897
-11.697
4.99645
5.47865
8.26402
6.33911
-11.9129
-9.73635
-8.6216
7.85626
8.8386
9.0689
11.9777
13.6992
-6.06264
-7.41261
7.27046
4.65597
8.68731
3.24032
-11.8013
-11.8191
10.8829
11.8499
3.75809
-18.2681
-22.5317
-9.88109
12.2375
-8.12328
3.40532
10.9698
11.0819
6.45139
6.49803
-7.48242
-7.96136
-9.20288
-12.3743
-12.1077
1.15649
-1.25652
12.3539
12.5743
3.25165
2.72808
13.9157
-10.2924
12.9061
11.1664
0.63149
-2.72517
12.14
6.28722
10.8118
2.53008
13.9275
18.9771
5.73464
9.61325
7.41052
2.80263
9.66191
4.17218
4.50343
7.33578
7.2124
-14.1708
-14.443
1.89903
-4.10533
-20.0605
5.95502
-5.9725
-7.6799
14.1199
-0.0224873
12.1554
-0.514186
-1.50002
-12.5796
-14.9561
-9.17532
-10.4367
0.610012
-11.7393
-11.6804
5.53372
-1.76217
-2.27962
-1.12484
-0.189791
1.00287
15.9293
-9.13737
-2.85938
-1.95524
-17.7374
22.5201
-4.38751
-30.4857
-23.1767
-26.3395
3.19361
-13.731
-15.2339
11.6515
10.6196
-8.75225
10.3296
-9.28483
-9.9983
0.732613
0.675346
0.338138
0.122165
-11.6258
1.01103
4.0528
-4.7293
10.8739
-0.481374
-1.57578
-15.1102
16.0237
7.51101
10.5226
7.24493
7.06997
-21.8519
-12.3907
10.139
-18.7967
-6.50674
13.7593
14.0193
11.6693
12.6707
-15.2239
4.54259
2.06677
1.1655
10.3912
10.1651
8.81513
8.24926
8.91071
4.95744
11.676
6.436
-5.0486
-1.67581
-0.391353
-1.63966
-20.7581
15.5734
-4.13194
4.26166
4.52107
-11.3846
-13.3446
23.1467
-18.5115
-19.9618
17.0055
12.5004
-4.94263
2.3962
-5.76096
-6.28916
4.99415
12.1102
0.905018
-13.3818
2.40435
1.09978
2.52992
3.2675
15.7863
15.7551
-15.8005
1.00917
-6.2165
-6.01125
2.23433
-6.58233
-11.7445
11.7191
-0.121892
0.740614
13.72
13.6536
7.54149
8.00432
2.68166
3.11116
-0.551189
-1.07042
-1.50004
15.8547
-4.42546
16.5466
16.3214
16.7162
-9.15184
-9.64237
-10.801
6.4127
-7.27993
13.4893
-7.05148
-6.05292
-7.38564
5.19587
-26.9082
-7.05314
10.0084
10.9819
10.6281
13.6178
12.9109
12.412
9.98151
9.94315
-12.7254
6.85872
11.94
11.3199
-7.22379
-28.2962
10.6983
-25.7107
-20.5695
3.27816
4.043
5.36767
5.86518
-18.2243
2.4913
3.4054
4.16004
12.2819
11.4278
1.56149
-2.19195
-2.7982
-0.546423
0.0495034
-16.8435
-15.6585
2.18109
1.21167
12.6648
11.4474
11.0917
4.65187
5.35827
9.52669
8.46064
6.63665
9.21362
8.83609
8.05446
8.26665
8.50644
10.4362
3.02747
2.80466
2.73777
-4.66703
14.1496
7.91805
8.40323
12.1457
-6.18472
15.9873
0.129421
0.304074
-13.3348
-2.74791
-2.04341
-2.79854
-11.9646
-11.7367
0.125208
3.53472
2.79718
-2.98948
-1.88991
16.8171
9.14192
2.59939
3.46839
-4.2824
-14.7574
7.89895
14.4088
14.5018
9.44784
9.14752
-0.58077
-1.03831
-1.65469
-0.975688
-0.389072
5.05763
13.2525
12.3823
4.60495
16.2601
16.625
16.6262
13.1906
13.4043
5.96753
12.7173
4.70258
5.19249
-2.68153
-1.66926
11.6374
10.7099
2.48511
3.24312
9.58152
10.36
-7.45693
1.39185
1.51162
1.47227
5.63103
-13.2735
-10.2454
5.35662
6.0398
-1.85
-1.45529
-2.51063