/*--------------------------------*- C++ -*----------------------------------*\
  =========                 |
  \\      /  F ield         | OpenFOAM: The Open Source CFD Toolbox
   \\    /   O peration     | Website:  https://openfoam.org
    \\  /    A nd           | Version:  6
     \\/     M anipulation  |
\*---------------------------------------------------------------------------*/
FoamFile
{
    version     2.0;
    format      ascii;
    class       surfaceScalarField;
    location    "1200";
    object      phi;
}
// * * * * * * * * * * * * * * * * * * * * * * * * * * * * * * * * * * * * * //

dimensions      [0 3 -1 0 0 0 0];

internalField   nonuniform List<scalar> 
44611
(
1.52282
-2.14556
0.622737
1.52282
1.44605
-1.44605
1.93933
-0.493275
-1.31923
-0.707832
2.02706
-1.31923
-0.0924028
-2.17366
2.0888
-0.565972
1.29633
-1.29633
0.180612
1.8545
-2.17627
0.730214
2.37678
-0.340663
0.413074
-1.7323
-0.796441
-1.19995
0.796441
1.29236
-0.553284
-1.33815
0.553284
0.743046
-0.595101
-0.82437
0.82437
-1.17128
1.3519
-0.010601
1.28971
-1.27911
-0.137454
-1.86253
1.99999
1.52387
-0.214817
-1.30906
1.21954
-1.21954
-1.10155
1.10155
-1.51212
1.51212
-1.19518
1.19518
1.50441
0.0194596
-1.92107
0.40895
-0.920219
-0.786416
1.70664
-1.62805
-1.26785
1.26785
0.124508
-1.42531
1.30081
-1.49486
1.49486
-1.28123
-0.220057
1.50129
-1.37226
1.37226
1.65579
-0.143669
-0.460615
1.51133
-1.05072
1.72075
-0.501211
1.32826
-0.214617
-1.11364
-0.701209
1.09753
-0.396324
1.18801
-1.46193
0.273924
-0.88125
0.88125
-1.14581
1.03982
0.105984
0.9536
-0.9536
1.19196
-1.32942
-2.28302
0.812788
-0.812788
1.01606
-1.23087
1.82885
-2.04366
-1.60851
-0.622271
-0.819558
-0.788954
-0.899027
0.899027
-1.0403
1.0297
1.92873
0.0932286
-1.46549
0.104409
-0.299677
1.21498
1.16181
1.7323
0.166297
0.532515
-1.21737
2.03693
-1.46549
-0.983674
-0.478256
1.29913
-1.29913
0.905024
-0.419441
-0.485584
1.33097
-1.14542
-0.185551
-0.801718
-0.64642
1.44814
0.000821189
-0.0800802
0.079259
1.67763
-0.387926
-1.69731
-0.165221
-0.356974
0.908916
-0.551942
-0.0385761
0.0454246
-0.00684849
-0.13689
-0.611714
0.748604
-1.16035
0.459137
0.0113927
0.0605014
-0.0718942
-0.0328431
0.00739898
0.0254441
0.856414
0.213656
-1.07007
-0.00209612
0.00209611
1.47504
0.524486
0.240621
1.23442
0.798864
0.878769
-0.023284
-0.00955904
1.23264
-0.504312
-0.728326
0.91834
0.314298
-1.0721
-0.625216
-0.26482
-0.807277
-0.98219
-0.4761
-0.909718
1.38582
0.00428942
-0.0428656
-0.00851121
0.0343243
-0.0258131
-0.728955
0.853464
-0.650543
-0.285803
0.936346
-1.17457
0.954512
0.000429241
-0.000429261
0.0916644
0.817251
0.996689
0.65203
0.863768
0.4672
1.15956
-0.295792
-0.0779683
0.638645
-0.560677
-0.364391
-0.480274
0.844666
0.411245
-0.745906
0.334661
1.14035
0.859648
-0.748649
0.757544
-0.0088949
-0.793645
1.06757
-0.889955
0.198581
0.691374
-0.887625
-1.11715
-0.84444
-1.43858
1.10926
0.337026
-1.44629
0.928376
-0.0719618
-0.199421
0.747263
-0.547842
-0.957422
-1.08624
-1.43352
-0.850086
-1.11694
-1.61149
0.7614
-0.868208
1.27716
-0.346452
0.807663
-0.461211
-0.981804
0.174527
-0.419296
-0.537515
0.95681
-1.31075
0.89145
-0.264598
0.830213
-0.565615
-0.832934
-0.0767836
0.75343
-0.617536
0.831193
-0.893799
0.594122
0.0494463
-0.0380536
0.0366585
-0.0451697
0.596495
-0.811112
0.84979
-0.683493
-1.49461
0.682473
-0.793567
0.111093
0.812133
-0.707724
0.901906
-0.0903997
-0.811506
-1.40114
0.000927982
-0.000927984
0.000927982
1.069
-1.069
1.07136
-1.07136
-1.1545
1.36172
-0.207221
0.624575
-1.07648
0.451905
-0.294812
1.36618
-0.899372
0.581871
0.317502
-0.929812
0.0304397
0.83042
-0.62455
-0.20587
0.0287025
0.337405
-1.13105
-1.2529
1.2529
-0.440099
1.35844
-0.107
-0.465089
0.00646699
0.458622
-0.153286
-0.311803
-0.643543
0.490257
0.372139
1.02417
1.40243
0.616013
-0.020311
0.974823
-0.0785915
0.932055
-1.25053
0.359915
-0.840189
-0.283628
-0.934273
0.334129
0.600143
-1.11931
0.185037
0.0894901
-0.800464
-0.963936
-0.31517
-1.45721
-0.726998
-0.233223
1.72808
1.06758
-1.20232
1.30831
-0.0634789
-0.682427
-1.05287
1.69737
-0.644496
0.0858823
-1.41226
1.35549
1.97823
-0.86027
0.86027
-1.64256
0.782294
-0.00547956
-0.00241976
0.00789933
-0.0255754
0.0300437
-0.0044682
-0.00642776
0.00398848
0.00243928
0.0471623
-0.0570879
0.00992563
-0.00397514
-0.00425219
0.00822733
0.00417982
-0.00815496
-0.0539875
0.00847336
0.0455141
-0.594205
0.294444
0.299761
-0.0634997
0.0489463
0.0145534
0.0149857
-0.0647617
0.049776
-0.00421025
0.00839006
-0.00484841
-0.000461915
0.00531034
0.0183763
-0.000748072
-0.0176282
-0.00174139
-0.00877453
0.010516
0.00605612
0.00471408
-0.0107702
-0.00221775
-0.00541596
0.00763371
0.00493293
-0.00426593
-0.000666994
0.00767458
-0.00212606
-0.00554852
0.0127816
0.0114962
-0.0242779
0.0363848
-0.0236031
0.00090234
-0.00584544
0.0049431
0.00540101
-0.00449867
0.63511
-0.436529
0.0933988
-0.0460477
-0.0473511
-0.0181596
-0.0198527
0.0380124
0.0269478
-0.0459559
0.019008
-0.00388477
0.00388473
-0.00632927
0.00166477
0.0046645
0.0314456
-0.0110793
-0.0203662
-0.0458879
0.0100524
0.0358356
-0.0855519
0.0149532
0.0705988
0.00350888
-0.00797159
0.00446272
-0.0077331
0.00532146
0.00241165
0.111072
-0.0354786
-0.0755939
-0.00327493
0.0621531
-0.0588782
0.0424897
-0.0405638
-0.00192586
0.00165902
-0.0199505
0.0182914
-0.0586071
0.0157551
0.042852
-0.0382849
0.0539308
-0.015646
0.00329813
-0.00765619
0.00435806
-0.00594108
-0.00221387
-0.00599418
-0.00722482
0.013219
-0.0102464
-0.0430848
0.0398098
0.0338239
-0.0769087
-0.00375592
0.00985951
-0.00610359
0.0321697
0.00824417
-0.0404139
0.0192792
-0.00567658
-0.0136026
0.00314387
-0.00314389
0.00927251
-0.0282591
0.0189866
-0.00676885
0.00414754
0.00262131
0.0604914
-0.0576363
-0.00285518
0.0304216
0.0323652
-0.0627868
0.0566137
-0.0261921
-0.00437517
-0.00239368
-0.020043
0.0210598
-0.00101676
-0.00796649
-0.0120765
0.00376176
-0.0109866
-0.00602384
0.00749594
-0.00147208
0.00425597
-0.00651526
0.0022593
-0.0245472
0.0395328
0.0208775
0.010943
0.00743329
0.018342
-0.0234114
0.0292222
-0.0058108
0.237202
-0.200033
-0.0371696
-0.0061915
0.00262391
0.00356759
-0.629889
0.344086
-0.0218531
0.0138867
0.0867061
0.464057
-0.550763
0.054853
-0.0716966
0.0168436
-0.00375413
0.00597269
0.0122818
-0.0182544
0.00126182
-0.00126182
-0.0558846
0.473503
-0.417618
0.0135156
-0.00215464
-0.011361
0.00802323
-0.00387143
-0.0041518
0.0050024
0.00267218
0.00880562
-0.0271896
0.018384
0.018077
-0.0205829
0.00250597
0.0104166
0.00766033
-0.0264611
0.0531683
-0.0267072
0.00444409
0.00357915
-0.00242389
-0.0037676
-0.0115471
-0.0168397
0.0283868
0.0020264
0.0087145
-0.0107409
-0.00342462
0.00556684
-0.00214221
-0.00660204
0.00317743
0.00577787
-0.000211035
0.000579975
0.015284
-0.015864
-0.00936665
-0.0295835
0.0389501
-0.00977355
-0.0361362
0.0459098
-0.431136
0.356662
0.0744746
-0.0338151
-0.0044697
0.0180601
0.0309308
-0.0489909
0.0165824
-0.00336337
-0.0210581
0.0209088
0.000149347
-0.0182619
-0.00279624
0.0257286
-0.015312
-0.0467867
0.0281145
0.0186723
-0.00134325
0.00624165
-0.00489839
-0.00487359
0.0555854
-0.0507118
0.0556177
0.0486027
0.00698264
-0.00165417
0.0246439
-0.0229897
0.0164871
-0.0159071
0.0148329
-0.00660145
0.0216298
-0.0150283
0.00535259
-0.019541
0.0141884
-0.00943626
-0.00901759
0.0184539
0.00998377
0.00659861
0.00054751
-0.00241898
-0.0272994
0.0187198
0.00857962
-0.0225007
0.0253313
-0.00283064
-0.0498
0.0440511
0.000168942
-0.00649821
-0.00367267
0.00550329
-0.00183062
-0.0264649
-0.56774
0.0578994
0.0358722
-0.0937717
-0.0135999
0.00697219
0.00662776
0.0107257
-0.00719116
-0.00353454
-0.0481552
-0.0232929
0.071448
0.320396
-0.526633
0.206237
-0.00507069
-0.00517568
-0.0894702
0.224107
-0.134636
-0.920122
0.308407
-0.00560815
0.00644054
-0.000832387
-0.00790748
0.00715941
0.034356
-3.1703e-05
0.0259709
0.0083851
0.0246122
0.00724932
0.0138104
0.0126019
0.00416738
0.00964306
0.000775354
-0.0240594
-0.0168529
0.00679815
-0.0161771
0.00937897
-0.0157361
-0.0011168
-0.00893793
-0.0250878
-7.56869e-06
0.0250953
-0.0396147
0.0138015
-0.246413
-0.184724
-0.0258041
-0.0376955
0.0229965
0.0309343
0.0315762
-0.39046
0.492837
-0.102377
-0.510418
0.501523
0.00160858
-0.00160859
-0.00608285
0.00257884
0.00350401
-0.0732403
0.0250851
-0.00111759
0.0436074
-0.433996
-0.486126
0.164613
-0.598608
-0.553212
0.067086
0.00291242
0.0292573
0.0262596
-0.0267497
0.000490017
0.0393234
-0.0449153
0.00559184
-0.0065768
-0.0140061
-0.0131782
-0.00500047
-0.00900565
0.0584307
-0.142886
0.0844555
0.245368
0.221552
-0.46692
0.344665
-0.0992967
0.556213
-0.0166878
0.0205426
-0.00385475
-0.0150514
0.0211649
-0.00611343
-0.0317392
0.0417075
-0.0103239
-0.0493272
0.0596511
0.0367776
-0.000119096
0.0264537
-0.0328257
0.0267123
0.00355908
-0.0200744
0.00535422
0.00293658
-0.0082908
-0.00280948
0.00704707
-0.00423759
-0.044548
-0.00133988
-0.013906
0.0408538
0.0277354
0.0213832
-0.0491186
0.036967
-0.0301436
-0.00682347
0.0315221
-0.0307009
0.0332396
-0.0289502
0.00776211
-0.00220859
-0.00555352
0.511473
0.123637
0.583043
-0.0715699
0.886206
-0.419006
0.0857414
-0.00745668
0.000930982
0.00652571
-0.0081301
0.00265054
-0.00984888
0.00675006
0.00309882
0.00169586
-0.0115447
0.0120103
-0.00526021
0.00488373
0.0197745
-0.0246582
0.00954186
0.00290139
-0.0124432
0.00712686
-0.00793025
0.000803392
0.00549913
-0.00715712
0.00165799
0.00333027
-0.00700294
0.0124661
-0.0306257
-0.0088422
-0.00660836
0.0154506
0.00606258
-0.0149048
0.00735536
-0.0139637
-0.021134
0.011575
-0.00483689
0.0312906
-0.00839278
0.0121545
-0.00705778
0.0119415
0.0240961
-0.488327
0.546016
-0.057689
-0.0222979
-0.00388904
0.0261869
0.0014204
0.0183541
0.014465
0.0212323
-0.0721355
0.0509032
-0.0314728
0.0527052
0.000546081
-0.00507962
0.00453355
0.00571118
6.67015e-05
0.00625726
-0.00501292
0.759484
0.00937714
-0.768861
-0.0520224
-0.51301
0.193441
0.319569
0.0342106
0.00511285
-0.00733653
-0.0332273
0.0268741
-0.0394553
0.0713386
-0.0318834
0.442129
-0.547511
0.105382
-0.0391635
-0.0302248
0.0693883
-0.0736585
0.034495
-0.358172
0.593958
-0.235786
-0.578174
0.557863
-0.0590621
0.163605
-0.104543
0.108161
0.12904
0.00325014
-0.00312105
-0.000129092
0.255729
0.114912
-0.370641
0.262197
0.0184801
-0.0168211
0.00864581
0.0231442
-0.03179
-0.020142
-0.0115971
-0.0329954
0.0232219
-0.0167806
0.0504367
-0.0336561
-0.886052
-0.18846
1.07451
0.571753
0.373574
-0.945327
0.47041
0.287287
-0.757697
0.180518
0.289892
-0.507944
0.619037
-0.466879
0.631492
-0.306114
0.39282
-0.441149
0.362557
0.755377
0.0113053
0.0201402
-0.020111
-0.00330047
0.0305005
-0.0222564
0.0049251
0.030912
0.00185691
0.00886879
-0.00765177
-6.18753e-05
0.00771365
-0.00579486
0.00880691
0.50649
-0.0424329
-0.0897933
0.448213
-0.358419
0.416697
0.00135771
-0.00217298
0.000815239
-4.14812e-05
0.00239012
-0.00234863
0.0584827
-0.766985
0.708502
0.00229082
-0.000211548
-0.00207928
0.162826
-0.104396
-0.0391179
1.17947
0.285894
-0.962668
0.676774
-0.00157972
-0.00230506
0.00225956
-0.00383929
-0.753699
0.339729
0.41397
0.573181
-0.85992
0.493889
0.366031
0.0860185
-0.0238654
-0.267578
0.498536
-0.230958
-1.20711
0.560688
-0.00178695
0.00178693
-0.696374
0.669909
-0.00837745
0.00400228
0.777018
-2.02992
0.748974
-0.758328
0.00935449
-0.554819
1.62382
-0.606455
0.694544
-0.0880886
0.385385
0.256913
-0.642298
0.827514
0.00250637
-0.00250639
-0.244
0.777943
-0.533943
-0.732327
-0.466189
0.800318
-0.623624
0.036228
-0.0677008
-0.867039
-0.340069
-1.2847
0.823487
0.536095
-0.614063
-1.03528
0.469665
0.0457954
0.463308
0.877251
-1.34056
-0.828962
1.29227
-1.38378
-0.773213
0.353772
-0.689573
-0.08364
-0.868292
0.00837247
-0.80981
1.33924
-0.814753
0.184736
0.395143
0.00153263
0.00269162
-0.00422426
-0.128366
0.364471
0.214038
-0.903611
-0.365553
0.153241
0.212312
-1.07291
0.624759
0.124215
-0.633132
0.00277484
-0.00299336
0.000218526
-0.955445
0.0323249
0.0809276
0.0220494
-0.465165
0.649746
-0.184581
-0.343433
1.47579
-1.81922
-1.01175
-0.105193
0.925868
0.522269
-0.0195788
-0.0922011
0.0726223
0.828756
-0.50836
0.36359
-1.69302
1.39821
0.895946
-0.404558
0.211108
0.19345
-0.989876
1.85015
-0.73731
0.53557
0.201741
-0.261922
-0.475388
-0.207582
1.24374
-1.45132
0.00226638
-0.000657802
-0.305656
0.78115
0.0456029
-1.3179
0.198587
-0.519032
-0.00133797
0.00133797
-0.0118792
-0.610633
1.54147
-0.179748
0.611661
0.0709299
0.0401424
-0.0238771
0.0562423
0.241176
0.115485
-0.163382
0.0110118
0.608019
-0.598642
-0.555997
-0.284192
0.901553
-0.418599
0.00253977
-3.34048e-05
0.64713
0.0322792
-0.480731
-0.59042
-0.0332038
-0.900652
0.310232
-0.534621
0.709191
-0.434425
0.549911
-0.718617
-0.266283
0.47739
-1.34651
-1.49018
0.649383
-1.04364
0.0545374
0.00207634
-0.253181
0.831674
-0.578493
0.0407454
-0.106677
0.0626312
0.0440459
-0.0597666
-0.0469106
-1.18956
1.05126
0.138303
0.228146
-1.27179
0.828289
-0.361271
0.0312028
0.230888
-0.262091
-0.0866294
0.117832
-0.00784801
0.022313
0.016248
0.0167956
0.00486395
-0.393398
-0.56927
-0.619412
0.092224
-1.55771
-0.0237864
-0.0618401
0.770022
-1.52963
0.759604
-0.877088
1.64711
-0.752607
0.213023
0.163194
1.23078
1.55771
0.170368
0.0540302
-0.0487222
-0.00530801
-0.00360603
1.64321
-1.0272
0.914888
-0.283095
0.00441716
-0.0966182
-0.076197
0.0806141
0.87412
0.200391
0.68857
-1.06284
0.643837
-0.374273
-0.937446
0.478555
-0.652495
0.0376564
0.815599
0.532504
-0.576144
-0.896095
0.319951
-1.08624
0.537576
-0.0477571
0.120379
0.032857
0.150689
-0.00387449
0.00361562
0.000258865
-0.00234186
-0.145184
-0.573432
-0.391597
0.0185956
1.58796
1.08675
0.00183944
-0.00455189
0.00271245
-0.00353242
0.00537187
0.00966969
-0.00572272
-0.00394696
0.00232566
0.00734403
-0.00358083
0.00659644
-0.0030156
0.00558653
0.000271706
-0.00585824
-0.00106783
0.00949554
-0.00842772
0.00674768
-0.00652235
-0.000225328
-0.00461592
-0.00234969
0.00696561
-0.000378541
-0.00558333
0.00596188
-0.00443815
0.00213067
0.00230748
0.00168746
0.00717891
-0.00886637
-0.00137161
0.0107743
-0.00940268
-0.0103251
0.00369152
0.00663362
-0.00121308
0.00978652
-0.00857343
-0.0153229
0.015221
0.000101862
-0.00681846
0.0034608
0.00335765
0.00999863
-0.0120137
0.00201505
-0.0166189
0.0117433
0.00487562
-0.00422304
0.00382436
0.000398691
0.007878
-0.00924961
-0.0181585
0.00109986
0.0170586
-0.0103284
-0.00783013
-0.00697712
0.00296047
0.00401664
0.000261085
-0.0072382
0.00497135
0.00408689
-0.00905824
-0.00761909
0.000652768
0.00696632
-0.00254802
-0.00507107
0.000414217
0.0053706
-0.00578482
0.00947889
-0.0100912
0.00061233
0.0086182
0.000860682
-0.00783225
-0.00347904
0.0113113
-0.00543569
0.00505715
-0.00124969
-0.00481275
0.00606244
0.00280528
0.00428264
-0.00708791
-0.00768586
0.00710987
0.000575997
-0.00285415
-0.00483171
0.0062232
-0.00877123
-0.0101993
0.00183002
0.00836927
-0.00351184
-0.00668744
0.00124933
-0.00556484
0.00431551
0.00457877
-0.00057395
-0.00400482
0.00386706
0.000711708
-0.0173122
0.0297782
-0.00247699
0.00469859
-0.00222161
-0.00551674
-0.00057653
0.00609327
3.04473e-05
-0.00554719
0.00187309
-0.0033589
0.00148581
0.027824
-0.0449245
0.0171005
0.026407
-0.00837293
-0.0180341
0.00232397
-0.00879589
0.00647192
0.0104856
-0.000703656
-0.0097819
0.00393713
-0.00274459
-0.00119253
-0.00744384
-0.00274906
0.0101929
-0.0139706
0.009016
0.00495459
0.00501405
-0.0105157
0.0055017
-0.00581898
0.00112211
0.00469687
0.0138917
-0.00398428
-0.0099074
-0.00771153
0.0216032
0.000621994
0.00761926
-0.00824125
0.00302598
0.00776425
-0.0107902
-0.00685168
-0.00210919
0.00896087
0.00570593
-0.0121177
0.00641173
0.0084622
-0.00720528
-0.00125692
0.00296154
-0.00933712
0.00637558
0.00998156
-0.022486
0.0125045
0.00237058
-0.00654425
0.00417366
-0.00695548
-0.000898827
0.00785431
0.00990594
-0.00540929
-0.00449665
-0.00801496
-0.00039332
0.00840829
-0.00651256
-0.000870936
0.0073835
0.00695739
-0.324164
0.317206
0.191542
-0.184585
0.00988316
2.64055e-05
-0.00990957
-0.00185138
-0.00801843
0.00986981
0.000785088
-0.00408851
0.00330342
-0.00923347
0.00596963
0.00326384
0.00183591
0.00862024
-0.0104561
-0.0113242
-0.00399866
-0.00470132
-0.00662289
0.0109915
0.0154156
0.00837088
-0.00837086
-0.00455497
-0.00450901
0.00906398
-0.00937502
-0.00594258
0.0153176
0.00641242
-0.00239211
-0.00402031
0.0072779
-0.00672981
-0.000548091
0.00485814
-0.00550181
0.00789938
-0.00239757
-0.00901773
0.00111285
0.00790488
-0.00396252
-0.00505521
-0.00812063
0.00820626
-0.00820625
-0.00204405
-0.00422556
0.00626961
-0.00804982
0.00763466
0.000415153
-0.00127835
-0.00677147
-0.00398227
0.0067588
-0.00277653
-0.00589993
0.00366891
0.00223102
0.00178586
-0.00768578
-0.00481344
-0.00250628
0.00731972
-0.0108762
0.00480553
0.00607063
-0.00947062
0.00987526
-0.000404642
-0.00534143
-0.00412919
-0.00026556
0.0179394
-0.0176738
-0.0195534
0.0278796
-0.00832622
0.00453334
0.00039959
0.00797119
0.000663024
-0.00863421
0.00985849
0.00660011
-0.0164586
0.0286891
-0.0429146
0.0142255
-0.00898321
0.0105054
-0.00152215
-0.00554779
-0.0108209
0.0163687
0.00847863
-0.00533558
-0.00314305
0.0015635
0.00691512
-0.00428253
-0.00428081
0.00856334
-0.00725505
0.0102166
-0.012332
0.00548029
-0.00446298
0.0106031
-0.00614012
-0.00122901
0.00338282
-0.00215381
0.00409748
-0.00601214
0.00191467
-0.00984106
0.00216479
0.00767627
0.0108951
-0.0034701
-0.00742496
0.00436742
0.00652764
-0.00542924
0.00127846
0.00415078
-0.00481287
0.00484332
-0.0090249
-0.000312221
-0.00599892
0.00324001
0.00478477
-0.00802478
0.00480457
0.00412885
-0.00893342
-0.00460499
0.00998552
-0.00538054
0.00822981
-0.00950816
-0.00884091
0.00776539
0.00107552
-0.00594237
0.00240995
0.00831924
-0.00296517
-0.00535407
0.0107496
-0.0115834
0.000833819
-0.00464841
0.00410507
0.000543321
0.00593833
0.00346921
-0.00940753
-0.00540873
0.0148078
-0.00939909
-0.0158084
0.00548
-0.00580973
-0.00818249
-0.00743729
0.0156198
0.0135334
-0.0217159
0.0392321
0.00971429
-0.00820744
0.00602306
0.00218438
0.00669327
0.00101541
-0.00770868
0.00799861
0.00503835
-0.013037
0.031118
-0.0646976
0.0335796
0.049647
-0.018529
-0.00627178
0.00617659
9.51905e-05
-0.023648
-0.0240358
0.0476838
0.113343
-0.0130471
-0.100296
-0.00689686
0.0079996
-0.00110274
0.0297721
-0.00476729
-0.0250048
0.0402547
-0.0104826
-0.00247042
0.00688727
-0.00441685
0.00129953
0.010376
-0.0116755
-0.00525571
0.000587379
0.00466833
-0.000740518
0.00902003
-0.00827951
-0.00871262
0.0120359
-0.00332329
0.0163222
-0.0115754
-0.00474676
-0.000967679
-0.0045733
0.00554098
-0.00166649
-0.00373065
0.00539714
0.00552156
0.00486127
-0.0103828
0.00568984
0.000532362
-0.0062222
0.0119595
-0.00731157
-0.00464794
0.0102109
0.0017486
0.00472973
0.00505479
-0.00978452
0.00822692
-0.00325557
-0.00107625
-0.00633984
0.00741609
0.00223339
-0.00770568
0.00547229
0.0104418
-0.0081161
0.0101348
-0.00755002
-0.00258478
-0.00500117
0.000152765
0.00664957
-0.00365401
-0.00299556
-0.000168883
-0.00928371
0.0056297
-0.00333308
-0.0044717
0.00780479
0.0104805
-0.0123319
-0.00821919
0.00393665
0.00230203
-0.0072754
0.00497337
0.00581092
0.00698503
-0.00461444
-0.0108712
0.00319335
0.00767787
0.00623704
-0.004005
-0.00223204
-0.00294805
-0.000855938
0.00380399
0.000522262
0.00446091
-0.00498318
0.00646071
-0.00593845
-0.000530179
-0.0081325
0.00866268
-0.0794957
-0.192944
0.27244
-0.0362135
0.0306377
0.00557574
0.00566383
0.000409689
-0.00607352
-0.00254361
-0.00760986
0.00262434
0.00498552
-0.00688254
-0.00667613
0.0135587
-0.00470293
-0.00841501
0.0131179
-0.00474371
0.00936274
-0.00461904
-0.00370422
0.0102578
-0.00655359
0.00562985
-0.00341315
-0.00221671
0.000596115
0.00503374
-0.00213451
-0.00208853
0.00157636
0.00685627
-0.00843264
0.00205252
0.00580428
-0.00785679
0.000391049
-0.00801611
0.00762506
0.00438482
0.0111363
-0.0155211
0.000214837
-0.00766904
0.0074542
-0.00661215
0.00682699
0.00410703
-0.00645514
0.00234811
-0.00563575
0.00679162
-0.00115587
-0.00114484
-0.00449091
0.00666014
0.00457386
-0.011234
0.414426
-0.220985
-0.00561955
0.011174
-0.00555447
-0.0116106
0.00377834
-0.00977468
0.00687045
-0.00490494
-0.00196551
0.0049777
0.00115876
-0.00613645
0.007304
-0.00585521
-0.00144879
-0.00125946
-0.00691736
0.00817682
-0.00109602
-0.00740698
0.008503
0.00293493
-0.00919054
0.0062556
-0.00752363
-0.00705147
0.0145751
0.000258465
0.00692522
-0.00718369
0.000575701
0.00620808
-0.00678378
-0.000815325
0.00881394
-0.0108562
0.00360115
-0.00309195
-0.00873083
-0.00742964
0.00658117
0.000848467
-0.00368247
-0.00374717
0.00699816
-0.00686286
-0.000135296
0.00352252
0.00347563
-0.00696818
0.00957008
-0.0026019
-0.00787315
0.000904968
-0.00537545
-0.00434494
0.00972039
0.00537584
-0.0171405
0.0117647
0.0121188
-0.00775173
-0.00436707
0.00729881
0.00481999
-0.0409436
-0.0130439
0.00566786
0.0034941
-0.00916197
-0.0107772
0.00697546
0.00380169
0.00345694
0.00329274
-0.00674968
0.0154906
-0.00705055
-0.00844004
0.0104204
-0.0142109
0.00379046
-0.00432699
-0.00437967
0.00870666
0.000519362
-0.00959134
0.00907198
-0.00370628
-0.00783129
0.0115376
0.00951285
-0.00698908
-0.00252377
0.00409308
0.00548334
-0.00957642
-0.00232205
-0.00808317
0.0104052
-0.00498755
-0.00484442
0.00983197
0.00270551
0.00514389
-0.0078494
0.00679828
-0.00750491
0.000706634
0.0012733
-0.00963611
0.00836281
-0.026199
0.0206013
0.00559775
0.0080622
-0.0342612
0.00983623
-0.00702195
-0.00281428
-0.00748995
0.00132863
0.00616132
0.0036921
0.00454194
-0.00823404
0.000926469
0.00318202
-0.00410849
0.0580387
0.023717
-0.0817557
-0.0275132
0.00902908
-0.00850972
0.00496314
0.00166582
-0.00662896
0.000139723
0.0060348
-0.00617453
-0.0219749
0.0149001
0.00707481
-0.0139286
-0.0080463
0.002417
-0.00761149
0.00519449
-0.0410517
0.000637813
0.00847383
-0.00878335
0.000309526
0.00517511
0.00612056
-0.0112957
0.00705724
-0.00252633
-0.00453091
0.0197728
-0.0105003
0.0108154
0.00658806
-0.0174035
0.000696983
-0.00934433
0.00864734
0.00178198
-0.0129265
0.0111446
0.000213108
-0.0129056
0.0126925
0.00514914
-0.00821899
0.00306985
-0.0103636
0.00349008
0.0068735
-0.00347296
-0.0054381
0.00891106
0.00300899
0.00550164
-0.00851063
0.00707294
-0.00681185
0.00444935
0.00392259
-0.00837194
-0.00950007
0.00446152
0.00503855
-0.00177688
-0.00772319
-0.00736475
0.00854059
-0.00117584
0.00853064
-0.000428269
-0.00810237
-0.00169518
-0.00203871
0.00373389
-0.00277153
0.0139922
-0.0112206
-4.68607e-05
0.0121614
-0.0121145
-0.000113259
-0.0104352
0.0105484
0.00789747
-0.0127307
0.00483323
-0.0113333
0.00331487
-0.00836076
-0.00297253
-0.00710545
-0.00497648
0.0120819
0.00358384
-0.00992449
0.00634065
-0.00804007
-0.00140885
0.00944892
-0.0064637
-0.0087736
0.00174377
-0.00582872
0.00408495
-0.00312296
0.00478773
-0.0221602
0.0108949
0.0112653
0.00808411
-0.00132232
-0.0067618
-0.00586449
0.00680366
-0.000939168
0.0141016
-0.0036812
0.00950166
0.00459993
0.0118094
0.00852228
-0.00738019
-0.00114209
0.00200973
-0.00478764
0.0386115
0.0107799
-0.00356414
-0.00721577
0.00817681
-0.00928312
0.00110631
0.00107382
0.007103
0.00838418
-0.00892394
0.000539764
0.00425407
0.00413011
-0.00349199
-0.0160614
-0.0112035
-0.00821089
-0.00785049
0.00780645
-0.00191305
-0.0058934
-0.00647576
0.00595527
0.000520486
0.002447
0.00168185
-0.00412884
-0.0129018
0.00572079
0.00718104
-0.00610529
-0.00546198
0.0115673
-0.0233822
-0.0189287
0.0423109
-0.010261
0.00607264
0.00418831
-0.00561302
-0.00464794
0.0111119
-0.00826183
-0.00285011
0.00301259
0.00777858
-0.0107912
-0.00867258
0.00760475
0.00215979
-0.00896255
0.00680275
-0.0067793
0.0052147
0.0015646
-0.00183936
0.00347587
-0.00163652
-0.00458871
0.0161116
-0.0115229
-0.0245699
0.0199812
0.138983
-0.24136
-0.185181
0.0668551
-0.0207776
-0.0460775
-0.0108278
0.00479389
0.00603391
-0.0118385
0.00101071
-0.0042957
-0.00572179
0.0100175
0.00558404
-0.00987975
-0.0122006
0.0215542
-0.00935364
0.0178431
0.0271106
-0.00555636
-0.0118113
-0.0408792
0.0526905
0.0301381
-0.0419494
-0.00116777
0.00742503
-0.00436155
0.0247214
-0.0203599
0.0120542
-0.0291205
0.0170663
0.00136159
-0.00856345
0.00720186
0.0175518
-0.00501673
-0.0125351
0.0145455
0.00300629
0.00539932
0.0050891
-0.0104884
-0.00539091
-0.010075
0.018885
-0.00881001
0.00347805
-0.00514454
-0.00299771
-0.038664
-0.0341829
0.0728469
0.041872
-0.0649095
0.0230375
0.00479821
0.00609087
-0.0108891
-0.00271738
0.00751559
-1.65313e-06
0.00609252
0.00296731
0.00513946
-0.00810677
-0.00290065
0.00846886
-0.00556821
0.00590174
0.00190471
-0.00395418
0.00962205
-0.00248397
-0.00226775
0.00475171
-0.0101993
0.0138344
-0.00363507
-0.00607297
0.0144554
-0.00838245
0.0100602
-0.00143999
0.00658119
0.0110642
-0.0014653
-0.00959889
0.00369243
0.0042249
-0.00791733
-0.0110822
0.00637928
-0.00426613
-0.00640555
0.0106717
0.00917221
-0.00466287
-0.00450934
0.00186064
-0.006547
-0.00422177
0.0107688
-0.00585002
0.00425182
-0.00847359
0.00320624
-0.0092288
0.00602256
-0.00630962
0.00951585
0.00591217
-0.00438694
-0.00152523
-0.00752716
0.0037432
0.00378397
0.00871768
0.00126121
-0.00997889
0.00294197
0.00408529
-0.00702726
0.00472782
0.00564879
0.00836322
-0.0101046
-0.00822241
0.00319599
0.00502642
0.0175326
0.022889
-0.0404215
0.0369498
-0.0193028
-0.0176469
0.000689637
0.00656551
-0.00725514
-0.00554571
0.00623535
0.0017427
0.00482281
0.00974313
-0.004594
0.00355784
0.00549417
-0.009052
-0.000181101
-0.00463177
0.00561034
-0.00150331
-0.00613508
-0.0114852
0.00931664
0.00216861
-0.0111893
0.0104487
0.00683725
-0.00290873
-0.00392852
0.00188787
0.0116456
0.0118694
0.00546213
0.00618344
0.00672962
-0.0102415
-0.00141681
-0.00894346
0.0103603
0.0133975
0.00177699
-0.0151745
0.0200783
0.00914393
0.0321325
-0.00296863
-0.00537268
0.00834131
-0.00624106
0.00327244
0.00430765
-0.00488417
-0.00873947
-0.0286645
0.037404
0.000476426
0.00789885
-0.00837528
0.0108596
-0.00866356
-0.00219604
-0.016683
-0.000384281
0.0170673
-0.0443362
0.0207473
0.0235889
0.0354277
-0.0259893
-0.00943837
0.00311613
0.00635144
-0.00946757
0.0130603
-0.0204976
-0.000194774
0.00609651
0.00472554
-0.00492031
0.00409727
0.00199924
0.00429148
0.00520406
-0.00530591
0.00959739
-0.00229703
0.00750109
0.00858993
-0.0225186
-0.00605855
0.00509087
-0.0060405
0.00384401
0.0021965
0.000652765
0.0221546
-0.025294
0.00313944
-0.00687226
-0.0040039
0.00523732
0.00151036
0.00565154
0.0072002
0.00874759
-0.0065878
-0.00668215
0.00668214
-0.0373527
0.0108516
0.0265011
0.00509753
-0.00682749
0.00172996
0.0068413
-0.00165851
0.0043203
-0.00266179
-0.00189111
0.00189111
0.0189296
0.0180202
-0.00830017
0.00730442
0.00099575
0.0317201
-0.000785765
0.00670636
0.0043521
-0.0110585
-0.00258124
0.0092876
0.00176443
0.00792021
-0.00968464
0.00662212
-0.00316518
0.00878786
-0.00988388
0.0380722
0.0184207
-0.0564929
-0.00554072
-0.00523491
0.0107756
-0.0133618
-0.00332118
-0.000311
-0.0130508
0.0139965
-0.0173177
-0.00616561
0.000792926
0.0255079
0.00178519
-0.0272931
0.0102114
0.0152965
-0.0269188
0.028704
-0.00251671
0.00780947
-0.00529277
0.00296022
0.00530711
-0.00826733
-0.00398505
0.00398505
-0.00439188
0.0070992
-0.00270732
-0.00651794
-0.0340563
0.0170252
0.0170311
-0.0119017
-0.00754477
0.0048145
-0.00481451
-0.00365651
0.00365651
-0.00296468
0.0126973
-0.00973265
-0.00114372
-0.0072398
0.00838352
-0.00836759
0.00612199
0.00224563
0.00104485
-0.00542972
0.00438487
0.00590538
-0.00141158
-0.0044938
0.00695024
-0.0107916
0.00937481
-0.00674335
0.00673391
9.44573e-06
-0.00416539
-0.00207567
0.00631737
-0.0100216
0.00299057
-0.00299057
0.00458502
0.0036419
0.00523779
-0.0119956
0.00363885
0.0083567
-0.0147341
-0.000220513
0.0149546
-0.000171112
-0.010058
0.0102291
-0.00698578
-0.00854788
0.0155337
0.00627104
-0.00403765
0.00278944
-0.00651238
0.00372294
0.0258724
-0.000404738
-0.0254677
0.023769
0.00334165
-0.00721005
0.00810574
-0.000895682
-0.0115281
0.0046456
-0.0136795
0.00215139
0.0133109
-0.00866527
-0.0100588
0.00071445
-0.00671952
-0.00333925
0.00063992
0.00594125
0.0177603
0.00991048
-0.0276708
0.00378889
0.0061467
-0.00993559
0.00724037
-0.0167415
0.00950114
0.00442046
-0.00442047
-0.00945896
0.00258687
0.00687209
0.0033684
-0.0086129
0.0052445
0.00290011
-0.00290011
0.00873049
-0.00571791
-0.0122575
0.0100545
0.002203
0.00286729
-0.00704338
0.0041761
-0.0132416
0.0143415
0.00360131
-0.00700521
0.00340391
0.00622522
-0.00544512
0.00550618
-6.10531e-05
0.00577077
0.000219655
-0.00599042
-0.0209265
0.0239039
-0.00297742
0.0209386
-0.000327939
-0.0206107
0.0100807
0.00514034
0.0102938
0.0123807
-0.00391996
-0.0100506
0.00435438
-0.00827433
0.000268458
-0.0103191
-0.00399778
0.00591831
-0.00192053
0.00395323
0.00240581
-0.00635904
-0.005721
0.00572099
0.00424223
0.00391285
-0.00815507
0.00207019
-0.00207019
0.00620784
-0.0108707
-0.0082032
0.00803901
0.000164197
-0.265255
0.0604548
0.2048
-0.166662
0.244543
-0.0778807
-0.431917
0.304998
0.00972514
-0.00108079
-0.00864435
-0.00646436
0.000852798
0.00561157
-0.00359708
-0.465465
0.320983
0.144482
-0.152624
-0.31284
-0.000955786
0.0111667
5.15643e-05
-0.0147856
0.0138441
-0.00869581
-0.00514826
0.0138956
-0.00631959
0.00589008
0.000429505
-0.0044166
-0.00705858
0.0114752
-0.00713733
0.00606108
-0.00737539
-0.000993053
0.00836845
0.0220684
0.00419126
-0.000145213
-0.0207813
-0.0276501
0.0346579
-0.00700783
0.0126046
-0.0062213
-0.00305453
0.00305453
0.00182782
0.0061044
-0.00793222
-0.00565608
-0.00250732
0.00816341
-0.00382826
0.00359708
0.00268279
0.00437445
0.00663603
-0.0112143
0.0134515
-0.00223718
-0.000333786
0.0187482
-0.0184144
0.0211479
-0.0214817
-0.000420715
-0.00514543
0.00556614
-0.0328632
0.0075488
0.0253144
-0.027387
-0.00547621
0.033032
-0.0254831
0.00433547
0.00253081
-0.00686628
0.00561394
0.00662829
-0.0123561
-9.89711e-05
0.012455
-0.0098034
-0.00255267
-0.00243381
0.0548367
-0.0524029
-0.0143188
-0.0230338
-0.00475703
-0.00167071
0.00121267
-0.00509731
0.00388465
-0.000333007
-0.0059896
0.00632261
-0.00639794
0.00606493
0.00291103
0.0135713
-0.0164823
-0.0141401
-0.00349628
0.0176364
-0.0112291
-0.00618698
0.0076042
-0.00141722
-0.00517157
0.00667114
-0.000900376
-0.0323427
0.000927381
0.0314153
-0.0144459
-0.0178969
0.0348413
-0.0339139
0.0217209
-0.0188085
-0.00502875
-0.00119244
0.00119244
0.00432294
0.00107807
-0.00121544
0.00553838
-0.0138973
-0.0152232
-0.0182588
0.00148327
-0.00148327
0.00343327
-0.00343329
-0.00198866
0.00198865
0.00603915
-0.00123362
0.00122571
-0.0231821