/*--------------------------------*- C++ -*----------------------------------*\
  =========                 |
  \\      /  F ield         | OpenFOAM: The Open Source CFD Toolbox
   \\    /   O peration     | Website:  https://openfoam.org
    \\  /    A nd           | Version:  6
     \\/     M anipulation  |
\*---------------------------------------------------------------------------*/
FoamFile
{
    version     2.0;
    format      ascii;
    class       volVectorField;
    location    "1200";
    object      U;
}
// * * * * * * * * * * * * * * * * * * * * * * * * * * * * * * * * * * * * * //

dimensions      [0 1 -1 0 0 0 0];

internalField   nonuniform List<vector> 
29884
(
(7.48589 0.0595736 -1.03922e-16)
(5.32873 0.0255657 8.90508e-17)
(5.41192 -0.115445 4.96369e-17)
(7.11018 -0.0761554 1.4053e-18)
(7.21683 0.103441 -2.95923e-17)
(5.74389 0.155774 7.11605e-17)
(7.89585 -0.117167 -3.50713e-19)
(7.39473 -0.000601259 4.24639e-17)
(4.69984 0.122018 2.6201e-17)
(7.13537 0.0177736 7.6777e-17)
(7.44361 0.00865637 -3.28314e-17)
(7.20163 0.195487 1.96012e-17)
(8.07933 -0.13228 -2.51007e-17)
(7.16546 -0.112513 2.44334e-17)
(7.18865 0.0991025 -3.28291e-17)
(4.43516 -0.0564467 8.50761e-17)
(8.23156 0.0509616 -3.53226e-17)
(6.67611 0.195854 -5.94475e-17)
(6.5272 0.163511 0)
(4.18329 -0.00392948 -1.64852e-16)
(7.80236 0.210506 1.44939e-16)
(4.94063 -0.0377784 0)
(8.00609 -0.06255 -4.32164e-18)
(7.11443 -0.0216394 0)
(7.07074 -0.0132328 0)
(7.59529 0.0429392 -2.73389e-17)
(7.85434 -0.00967353 0)
(8.02449 -0.0435531 8.35823e-17)
(5.16021 -0.0249732 8.85813e-17)
(5.16785 0.113569 7.09698e-18)
(5.40049 -0.00824393 -1.5699e-17)
(4.81493 0.0889886 4.94664e-16)
(7.99776 0.0371094 -2.46547e-17)
(7.4439 -0.0313719 0)
(7.27765 -0.059597 -7.84151e-17)
(7.50854 -0.105496 6.19272e-17)
(5.02166 -0.0351803 7.84652e-17)
(7.55291 0.133205 9.72888e-18)
(5.35726 0.146308 -7.81232e-17)
(7.78506 -0.152168 -3.67223e-17)
(5.02991 -0.0506501 0)
(7.05918 0.0704658 1.66702e-17)
(7.60636 0.193902 -4.74681e-17)
(7.23602 0.282149 -3.12165e-16)
(6.97205 -0.0165611 1.95399e-17)
(7.58309 -0.152435 -2.20651e-17)
(8.02556 -0.202691 0)
(7.68441 -0.116426 -6.55521e-18)
(4.80749 0.0345695 -1.31302e-17)
(8.36163 0.0906411 0)
(7.37486 0.125022 0)
(7.18539 -0.0744049 6.07731e-18)
(4.72013 -0.152163 3.73136e-17)
(8.41999 0.0289535 1.03141e-16)
(7.20764 -0.0621481 -8.21086e-17)
(7.09501 -0.137235 6.17211e-17)
(4.41616 -0.0181443 9.42986e-18)
(7.99076 -0.0533583 0)
(6.67218 0.0515821 6.37074e-17)
(6.90453 -0.141346 -1.01068e-16)
(7.77317 0.161683 -1.82235e-17)
(7.82198 -0.00844072 2.42973e-17)
(4.71625 -0.100527 0)
(8.13703 0.0516832 -4.26113e-17)
(7.12325 -0.0692733 2.91274e-17)
(7.00878 0.0796433 -6.36202e-18)
(7.46383 -0.0431531 8.80191e-18)
(7.8373 -0.116629 5.8335e-17)
(7.41828 -0.0944561 -3.88133e-17)
(7.33646 0.0664251 5.51407e-17)
(7.24751 0.19627 3.92016e-17)
(7.67261 0.0658254 -1.21952e-17)
(7.51797 0.101897 0)
(5.63192 -0.138885 0)
(7.31275 -0.104934 -4.79752e-17)
(6.92094 -0.0922961 -1.84881e-17)
(8.14214 0.10616 0)
(7.88641 -0.122628 0)
(8.09321 -0.11621 0)
(5.10226 0.0352878 0)
(7.67818 -0.0783952 5.09127e-17)
(5.23116 -0.0516771 0)
(7.12139 -0.13519 0)
(7.01664 0.0919077 2.75832e-17)
(6.57355 -0.0512975 -1.96971e-17)
(4.56103 -0.511739 -9.03768e-18)
(7.35623 -0.000922368 0)
(7.61051 -0.0301324 0)
(7.26351 -0.106699 4.4049e-18)
(3.70792 -0.85097 1.81843e-17)
(7.19925 -0.197868 0)
(7.88865 -0.239135 -1.89769e-17)
(4.58066 -0.106249 -5.1579e-17)
(3.37802 -0.722414 0)
(7.12472 0.123337 -4.30562e-17)
(1.70039 -0.379995 0)
(6.99612 0.0138501 -7.4167e-17)
(7.00708 0.0126638 9.82554e-17)
(7.47343 0.0540088 4.49732e-18)
(3.42572 -0.557085 0)
(7.01207 0.0362154 4.89531e-17)
(6.94288 0.0720849 1.09677e-16)
(7.66538 0.01615 0)
(7.75973 0.0198071 -3.28368e-18)
(7.366 -0.114928 -4.33263e-18)
(8.12682 -0.114447 0)
(3.85446 -0.647034 1.47926e-17)
(3.73882 0.0337473 -3.70237e-17)
(7.12567 0.129786 -4.87041e-17)
(6.98118 -0.328159 0)
(7.40901 -0.2107 0)
(1.56849 -0.221715 5.10625e-17)
(7.25795 -0.077289 2.94062e-18)
(7.15086 -0.112681 0)
(7.31249 -0.117246 -2.86015e-18)
(6.9753 0.107389 -2.77163e-17)
(7.16402 0.113096 0)
(7.14261 -0.223727 0)
(6.77166 -0.0784889 0)
(6.65543 -0.314129 4.08588e-17)
(7.00359 0.0059434 0)
(6.86434 -0.302486 2.6202e-17)
(7.32827 -0.15869 4.08243e-17)
(6.78707 0.191348 0)
(7.03583 -0.0243848 1.30433e-17)
(7.05725 -0.190774 -6.13628e-17)
(7.81351 -0.268289 4.44021e-18)
(7.96364 -0.037109 1.51609e-17)
(6.87633 -0.220822 -4.27955e-18)
(6.9904 0.134291 0)
(6.77567 0.162888 1.30355e-17)
(6.95188 0.116529 -1.46917e-17)
(6.97136 -0.102587 4.0355e-17)
(8.1388 -0.114244 0)
(6.87897 -0.0845831 0)
(7.47583 -0.0870927 0)
(7.65053 0.235538 0)
(7.35405 -0.108551 5.81068e-18)
(7.54035 -0.142922 -1.51482e-17)
(7.54087 -0.129304 3.16535e-17)
(7.40149 -0.113523 0)
(7.2884 -0.0179585 2.47562e-17)
(7.70528 0.14002 -1.81818e-17)
(7.74197 -0.223585 -9.27866e-18)
(7.98463 -0.180839 -1.01406e-17)
(8.00963 -0.206085 1.00112e-18)
(7.75921 -0.173271 1.88284e-17)
(7.49297 0.174399 5.45175e-17)
(7.81407 0.116529 -4.58986e-17)
(7.75157 0.20564 5.01098e-17)
(7.64327 0.123248 0)
(4.33523 -0.12879 -2.38052e-17)
(3.97441 0.00766028 0)
(7.91369 -0.143283 -1.31447e-17)
(7.83264 -0.220474 2.23509e-17)
(7.89587 -0.16335 0)
(7.9378 -0.185593 -6.88896e-18)
(7.82476 -0.205669 0)
(7.87698 -0.120833 0)
(7.91174 -0.177443 0)
(7.87078 -0.150545 -2.29304e-17)
(7.046 0.0240609 3.44278e-17)
(6.96384 -0.050052 -3.49185e-17)
(7.55391 0.188684 -8.73228e-17)
(1.07711 -0.0664629 -1.18833e-16)
(1.02709 -0.00835562 1.08083e-20)
(4.92063 -0.0751007 0)
(4.72281 -0.00691385 0)
(7.00805 0.041892 -4.20605e-17)
(7.94687 0.195721 5.18734e-17)
(7.35353 0.0472882 -1.53564e-16)
(6.98086 0.102746 0)
(6.97384 0.0740776 0)
(6.86177 -0.0586926 -1.96769e-17)
(7.02048 -0.0591734 0)
(7.0289 -0.181058 7.75841e-18)
(6.83431 -0.261855 -6.83265e-17)
(5.16228 -0.0323696 7.00642e-17)
(7.07357 0.137786 -3.87965e-17)
(7.26063 -0.197671 -7.0179e-18)
(7.00153 -0.281543 -1.5515e-17)
(6.33099 -0.359932 -3.1607e-18)
(6.32702 -0.269499 3.93291e-17)
(6.44318 -0.204979 7.47103e-18)
(7.17188 -0.102482 9.20627e-18)
(7.28158 -0.128948 0)
(7.06523 -0.0229476 -6.16494e-17)
(6.98563 -0.000607209 3.79291e-17)
(7.30864 -0.238945 -4.06019e-18)
(6.98634 0.106028 3.03061e-17)
(7.38423 -0.171585 0)
(6.57009 -0.0745136 2.56281e-17)
(6.43721 -0.125851 -7.11144e-18)
(7.25935 0.157501 7.04719e-18)
(7.36075 0.125983 -2.75865e-18)
(7.04184 0.152065 0)
(6.84898 0.177924 0)
(7.37493 0.0539551 2.7103e-17)
(7.61641 -0.018166 -8.84813e-18)
(7.4686 -0.129478 0)
(6.77561 0.0287349 0)
(7.60206 -0.034359 0)
(7.53175 0.0586049 3.51084e-17)
(7.16929 -0.0118695 -3.56535e-17)
(7.37169 0.0692251 -1.00037e-16)
(6.581 -0.291668 0)
(7.42252 -0.0726548 0)
(7.19809 -0.107721 0)
(7.33391 -0.0399982 0)
(7.86089 -0.118691 0)
(7.70523 -0.118307 0)
(7.8878 0.066296 0)
(8.09171 -0.0794712 0)
(4.75416 -0.0770749 0)
(7.05527 -0.0948652 0)
(3.98944 0.922398 -3.13905e-19)
(6.30304 2.43924 -5.8751e-19)
(3.72782 -0.0741826 1.67002e-18)
(6.66233 2.50572 0)
(2.81861 -1.57212 -1.68991e-20)
(2.73891 -1.54589 1.41975e-17)
(7.29189 -4.08688 6.41296e-18)
(6.79482 0.312227 0)
(6.73341 2.17723 0)
(4.21637 -0.896873 -2.07594e-17)
(2.68098 -1.61795 -1.54052e-20)
(3.785 -0.79636 2.75334e-18)
(3.08284 -0.585714 0)
(2.44287 -5.22422 6.02238e-18)
(7.69047 -1.39014 0)
(5.15958 -4.25313 -8.87255e-20)
(3.69171 -0.815611 3.09351e-18)
(4.03563 -0.219013 3.70523e-21)
(6.11009 -3.89038 -2.4422e-18)
(6.19669 -3.88712 -2.21921e-18)
(4.02358 -0.00144798 5.67086e-19)
(3.97154 0.0219481 -7.02557e-19)
(6.73134 0.23026 -8.23006e-17)
(4.03333 -0.133493 0)
(5.44757 -3.73877 -3.04055e-18)
(5.64066 -3.55462 0)
(1.69949 -0.926591 0)
(3.92348 0.666997 -1.45396e-18)
(5.7949 -3.99564 4.57188e-18)
(6.04559 -3.2111 -2.07037e-18)
(6.44661 1.8182 0)
(3.75347 -1.50547 2.69575e-18)
(3.70955 -0.518476 0)
(5.99825 -1.33347 3.22512e-18)
(7.06178 -2.29497 -1.28639e-17)
(6.29501 -3.40709 -4.0524e-18)
(6.40414 2.8084 2.09601e-20)
(6.37802 2.21993 1.8402e-18)
(6.35474 2.30876 -2.38937e-18)
(2.65811 -1.21174 0)
(2.71075 -1.41863 7.544e-20)
(2.98662 -1.52834 -1.82772e-17)
(2.88837 -1.47582 -2.58212e-20)
(6.52046 -2.03842 -6.86017e-18)
(6.17043 -1.89312 5.48818e-18)
(6.74442 -1.87317 0)
(6.22758 2.40286 2.53097e-18)
(5.68824 -4.19138 -2.07761e-18)
(1.79838 0.767255 -5.7491e-17)
(6.16593 2.80039 0)
(3.54376 -1.3366 0)
(7.26245 -3.52933 1.36431e-17)
(6.53724 1.93136 2.2837e-18)
(6.58594 1.97809 5.34036e-19)
(3.53987 -1.2497 0)
(6.50603 2.42229 -7.16064e-20)
(6.47844 2.43838 9.12705e-20)
(3.02763 -1.44096 9.23124e-18)
(3.41933 -1.9508 4.28568e-19)
(3.30987 -2.12127 3.48709e-18)
(3.97652 -1.10017 4.21643e-17)
(3.76328 -1.06311 0)
(3.10229 -0.724649 0)
(3.2128 -0.794417 5.04933e-19)
(5.64546 -3.87453 2.17526e-18)
(4.0324 -0.267152 0)
(3.96244 -0.70953 -6.66921e-19)
(6.88636 -0.414957 2.01649e-17)
(6.45086 2.42415 0)
(6.58582 0.192221 5.54916e-17)
(6.35435 2.10528 0)
(6.39667 2.15261 0)
(6.03268 -4.3406 0)
(0.942519 -0.466898 8.54886e-17)
(6.87601 0.306073 -7.89474e-17)
(2.93385 -0.407237 -9.76789e-18)
(3.98467 -0.42152 2.32644e-18)
(4.02199 -0.286622 -1.10449e-18)
(5.66209 -4.02131 -1.29823e-18)
(6.17648 -4.27349 -9.98018e-19)
(6.17629 -4.23209 -3.06895e-18)
(6.26642 2.31113 3.67161e-18)
(3.97678 -0.493299 -3.74424e-18)
(3.96333 -0.633917 1.39854e-18)
(5.79918 -3.83668 -2.06479e-18)
(6.74199 -3.38843 0)
(3.79731 -0.972421 0)
(3.851 -0.918283 0)
(3.80285 -1.05745 0)
(3.14401 0.43589 -1.72421e-17)
(3.84486 -1.76885 9.0105e-18)
(4.21409 -1.3554 0)
(6.14157 0.111255 -1.66028e-17)
(6.32158 2.29846 -5.97558e-19)
(6.29241 2.23616 -2.12583e-18)
(6.33346 2.24138 -2.40426e-18)
(6.2829 2.29313 -4.66867e-18)
(2.97262 -1.67664 -2.05211e-17)
(5.55537 -4.10228 9.02456e-19)
(5.6054 -4.13038 -1.92552e-18)
(6.21747 -4.21827 4.70378e-18)
(6.25336 -3.61046 0)
(3.86893 -0.646589 2.56095e-18)
(7.43621 -3.23278 -4.24526e-18)
(7.32066 -3.37738 -9.24479e-19)
(7.27743 -2.89574 3.51825e-18)
(3.39908 0.110495 0)
(3.26222 0.347662 -1.71491e-17)
(3.24335 0.141643 0)
(6.31128 -4.29824 -1.70644e-18)
(6.47018 2.36304 9.85272e-20)
(3.07461 -1.9455 -1.36786e-17)
(2.99537 -1.75151 1.81875e-17)
(3.10886 -1.76504 2.20329e-17)
(2.93028 -1.93781 6.42865e-18)
(6.40732 2.3659 1.11344e-18)
(6.45442 2.34377 -1.58703e-18)
(6.43651 2.32227 3.43331e-19)
(6.43416 2.37766 4.06497e-19)
(3.92015 0.735585 2.82135e-18)
(3.89117 0.883955 -1.61213e-18)
(6.81482 0.278689 -2.60397e-19)
(6.52146 -0.84282 -2.89089e-17)
(2.90237 -0.742207 -1.98757e-17)
(2.87879 -0.98092 0)
(7.0271 -3.07623 -5.11154e-18)
(7.51328 -0.442561 -3.88455e-17)
(2.86206 -1.35744 5.77417e-18)
(5.84336 -0.856511 -2.03444e-18)
(7.12317 -0.241653 8.66952e-18)
(2.87112 -0.597018 0)
(2.97119 -0.584218 1.87977e-17)
(2.93728 -0.512225 6.7702e-20)
(2.91339 -0.637145 -5.41743e-18)
(3.61757 -0.0873973 3.16198e-19)
(3.61434 -0.265016 0)
(3.40819 -0.0223645 -6.74855e-18)
(6.51421 2.39646 0)
(6.49731 2.37505 0)
(6.54521 2.37922 1.7599e-19)
(3.31766 -0.455158 0)
(3.15217 -0.466937 3.2535e-17)
(3.1023 -0.117902 0)
(3.11807 -0.340268 -3.51595e-17)
(3.17832 -0.190764 0)
(3.43402 0.575701 -6.39736e-18)
(3.67119 0.266938 3.70417e-17)
(6.21001 0.161286 -5.99583e-17)
(6.74137 2.0844 -1.02521e-18)
(6.35327 2.33674 8.73497e-19)
(6.38356 2.36179 -1.8071e-18)
(6.70812 -0.616488 6.0548e-18)
(6.7569 -0.398415 0)
(1.10303 0.405599 0)
(2.70111 -0.554484 -8.23551e-18)
(6.79586 -3.15807 0)
(6.4273 -3.29548 -1.216e-17)
(7.11903 -0.260013 -2.00669e-17)
(7.14322 -0.244921 1.57772e-17)
(7.07757 -0.296363 0)
(6.23768 2.45159 1.3052e-18)
(6.2862 2.51354 6.37626e-19)
(6.62708 -3.69903 4.32778e-19)
(6.20619 -4.28852 0)
(6.27044 -4.29369 2.31841e-18)
(6.20426 -4.33252 2.46938e-18)
(5.268 0.222664 9.91945e-17)
(6.52195 -0.483263 -5.44946e-17)
(6.54044 -0.600488 0)
(6.60884 -0.410429 -2.39197e-17)
(5.87253 -3.68948 0)
(6.03874 -3.70553 4.94012e-18)
(5.95368 -3.77275 -1.55298e-20)
(5.91698 -3.66242 -4.52259e-18)
(4.24929 -0.365521 0)
(4.00404 -0.134834 -2.10797e-18)
(3.92745 -0.338845 -3.23878e-17)
(4.26215 -0.221905 0)
(6.14914 -3.75694 2.31087e-18)
(6.22266 -3.84545 1.78044e-19)
(6.26398 -3.7144 -1.61868e-18)
(3.95701 0.428563 2.39719e-18)
(3.89546 0.320319 0)
(5.96159 -3.30303 0)
(5.76066 -3.46692 -4.50218e-18)
(3.96422 0.405099 -5.39255e-19)
(3.67268 0.769302 -8.20901e-18)
(4.3225 -0.552614 -5.30271e-19)
(4.07359 -0.663258 1.78343e-17)
(4.22342 -0.684137 -1.13717e-17)
(4.2448 -0.451636 1.02981e-17)
(3.04653 -2.69794 -2.39928e-18)
(6.68293 0.250858 1.00018e-17)
(6.67155 0.222244 0)
(6.88292 0.139798 0)
(6.81705 0.172265 5.66313e-18)
(3.91439 1.14762 0)
(3.95726 1.00872 0)
(2.91617 -0.195814 -2.33477e-17)
(2.90672 -0.0780392 1.62639e-20)
(2.83192 -0.221869 1.07514e-17)
(3.4061 -1.26695 0)
(6.71276 -1.75036 0)
(3.81354 1.61219 -9.21109e-20)
(3.92332 1.47217 -1.91484e-18)
(3.86207 0.961188 -1.54334e-18)
(5.39373 -3.84816 0)
(3.1791 -1.20197 9.07204e-18)
(3.25966 -1.06773 1.78608e-17)
(3.04491 -1.16077 0)
(3.58583 -0.522649 0)
(3.8361 -0.351389 4.19401e-17)
(3.66994 -0.316707 -5.15039e-18)
(3.8137 -0.517304 -3.04795e-17)
(3.13349 -1.46988 1.79071e-17)
(3.2975 -1.35248 0)
(3.20035 -1.30305 -1.87939e-17)
(3.2629 -1.48151 0)
(7.61173 -0.390535 1.38423e-17)
(3.71216 -1.42623 0)
(3.50794 -1.29343 0)
(3.68052 -1.22873 0)
(3.51911 -1.44842 1.49353e-17)
(6.63594 -2.42351 0)
(6.90201 -2.31028 -6.76371e-18)
(3.69981 -1.1769 -7.99279e-19)
(3.78489 -1.10138 0)
(3.77313 -1.1809 7.17305e-19)
(3.71685 -1.10687 0)
(6.91233 0.0766811 3.50689e-19)
(6.87711 0.0117161 0)
(6.52885 0.310515 3.27362e-17)
(6.54361 -3.6291 1.51703e-19)
(6.38475 -3.47102 3.68328e-18)
(6.58552 -3.53696 3.23847e-18)
(6.3436 -3.58067 4.02738e-18)
(6.86355 2.0565 0)
(7.24742 0.440403 -2.65671e-17)
(4.55121 -1.55458 1.84144e-17)
(4.63807 -1.25989 -3.40049e-17)
(7.00804 -0.344644 1.653e-17)
(7.10169 -0.272982 -1.12451e-18)
(7.02679 -0.317585 -1.08558e-17)
(6.85664 1.35313 2.46816e-18)
(4.08881 -0.194764 -3.45825e-17)
(2.09678 -0.194196 0)
(6.11074 -0.475025 -2.29857e-17)
(6.22711 -0.461109 5.28515e-18)
(6.40599 2.87825 -1.35464e-19)
(5.93573 -3.90547 0)
(5.95475 -3.82779 -4.48894e-20)
(6.02824 -3.85564 2.88155e-18)
(5.89505 -3.85007 2.67325e-18)
(4.31559 -1.24151 0)
(4.53331 -0.927192 -5.87691e-18)
(4.3406 -0.978777 0)
(4.54046 -1.17111 3.73926e-17)
(6.90564 0.111915 0)
(6.91485 0.075881 1.36573e-17)
(6.9036 0.0936349 0)
(7.00333 0.0721865 5.20199e-19)
(7.00013 0.0910233 -1.70884e-17)
(7.5743 -0.181035 0)
(7.24021 -0.222967 -4.58905e-18)
(7.37545 -0.221987 4.82816e-18)
(7.41642 -0.17914 0)
(6.64684 0.179149 0)
(6.75898 0.0889521 -6.94329e-17)
(6.72599 0.159694 4.98605e-18)
(6.6622 0.129898 4.2878e-17)
(5.76521 -3.95771 -4.86642e-18)
(5.7054 -3.88721 0)
(5.69947 -3.9763 0)
(5.77547 -3.89858 0)
(6.26483 2.3903 1.32083e-18)
(6.29609 2.41429 -7.26159e-19)
(6.28545 2.35276 1.092e-18)
(2.87522 -1.0623 0)
(2.78324 -1.16691 7.0282e-18)
(2.79082 -1.08561 -7.40633e-18)
(2.8806 -1.16244 -5.68238e-18)
(6.52318 0.205904 -9.22915e-18)
(6.40562 0.234837 3.61606e-18)
(6.4725 0.179283 9.21936e-17)
(2.3795 -0.313964 -2.04277e-17)
(2.10306 -0.0173036 2.37068e-17)
(6.94312 0.146483 0)
(2.16052 -0.199434 -9.8378e-19)
(5.41952 0.0998565 -1.18882e-16)
(6.99567 0.0206803 4.86779e-17)
(7.01977 0.0752829 2.0737e-17)
(2.32874 -1.15871 -6.50717e-18)
(2.57046 -1.21564 1.20224e-17)
(7.01136 0.115762 6.04639e-17)
(7.01023 0.0837527 6.57799e-17)
(7.0089 0.0908049 -2.16653e-17)
(6.95871 0.201836 8.50415e-17)
(7.11502 -2.22821 1.33894e-17)
(7.00294 0.240804 0)
(6.00178 -0.0844732 1.58142e-17)
(1.62149 -0.272508 -3.24761e-20)
(2.18263 -0.331635 0)
(6.7807 0.231539 -5.75088e-17)
(3.60384 -1.19863 0)
(7.43119 0.016044 -4.33142e-17)
(6.99962 0.14229 4.50744e-17)
(6.80425 -0.012267 0)
(7.85514 -0.405349 0)
(7.33489 0.335031 0)
(7.31946 0.407604 2.99077e-17)
(1.74447 0.518708 1.91329e-17)
(7.72913 -0.281996 7.53884e-17)
(7.66566 -0.342869 0)
(7.13699 0.174625 -3.83145e-18)
(6.85349 0.276179 0)
(7.07234 -2.35792 6.9865e-18)
(6.04496 -0.0709925 1.40361e-17)
(7.18527 -0.166725 -1.88173e-18)
(7.128 -0.215577 2.79983e-18)
(7.16797 -0.194053 3.9886e-19)
(7.57517 -0.224798 0)
(6.66712 -0.443915 -6.02124e-18)
(6.64574 -0.556532 8.30767e-18)
(8.09636 -0.218633 3.59265e-17)
(8.14847 -0.133829 -3.6518e-17)
(8.06553 -0.12891 7.95041e-17)
(6.95016 -0.119501 2.74934e-18)
(6.84862 -0.0973814 2.56162e-18)
(6.97574 0.178965 2.52296e-17)
(6.97087 0.153605 2.4787e-17)
(7.00057 0.0231534 2.69126e-17)
(7.00307 0.0366474 5.83754e-17)
(6.43381 -0.370313 0)
(3.29015 0.527705 0)
(6.80872 -0.449468 0)
(6.78706 -0.567459 0)
(7.15641 -0.165003 4.17614e-20)
(6.98364 0.254716 -2.5968e-17)
(6.25407 -0.0828039 -8.71958e-18)
(7.00332 0.169679 -4.6194e-17)
(6.99314 0.209498 0)
(6.99235 0.191217 9.88934e-19)
(2.10007 0.317296 0)
(6.93713 0.113987 -1.33734e-17)
(6.94679 0.102899 1.32093e-17)
(7.26122 -3.17364 6.26059e-18)
(7.27624 -2.89609 0)
(7.28718 -2.77844 2.6207e-18)
(7.40516 -0.362331 -6.67694e-17)
(7.16502 -0.0536334 0)
(8.27253 -0.0237654 0)
(6.58941 -0.0586027 -2.63138e-18)
(6.54334 -0.0508236 -1.9364e-17)
(6.84974 -0.0552554 2.72259e-17)
(4.66675 -0.275087 6.30996e-17)
(4.87737 -0.272424 0)
(7.50368 -0.38274 -7.67056e-17)
(7.44908 -0.356374 6.06328e-17)
(8.06514 0.0341721 -3.25346e-17)
(8.17167 -0.115479 0)
(6.03607 -0.164619 0)
(7.06848 -0.00292685 0)
(7.1763 0.386261 9.63497e-18)
(7.15515 0.336632 0)
(8.06753 -0.13471 0)
(8.27089 -0.10115 -2.18138e-17)
(1.69317 0.541637 0)
(7.13014 -0.247849 -1.05224e-18)
(7.25533 0.0104877 0)
(4.64068 -0.751755 -3.03309e-17)
(7.22181 0.121415 -1.73224e-19)
(7.23185 0.0797583 9.16209e-18)
(1.00007 -0.084421 -8.20504e-17)
(3.75338 0.413179 1.51689e-17)
(3.60332 0.596074 -9.46545e-18)
(6.79999 0.209608 5.07803e-17)
(6.99748 0.053294 -2.49844e-17)
(6.99278 0.0716026 -2.62292e-17)
(5.57855 -1.0373 -2.79564e-17)
(6.48392 1.99543 -2.07381e-18)
(6.16662 0.00310977 -3.46042e-17)
(6.0427 -0.0511877 0)
(2.74145 -1.23242 1.23642e-17)
(2.76885 -1.33052 -1.25285e-17)
(6.66764 0.0769038 -4.31651e-19)
(6.56062 -0.00399711 7.2962e-17)
(6.6586 0.0101737 0)
(6.99972 0.0925 5.3896e-17)
(7.00285 0.124416 1.93984e-18)
(2.56735 0.676788 0)
(6.96581 0.245762 -5.40482e-17)
(6.61262 0.237347 -5.4228e-17)
(6.58063 0.307596 -3.23388e-17)
(6.86695 0.230852 9.92015e-17)
(6.90482 0.231855 -7.14061e-17)
(6.92158 0.196303 -2.86766e-17)
(7.29885 0.055581 -5.5496e-17)
(6.28291 -0.0228531 2.35808e-17)
(6.39738 0.0388475 -5.81662e-17)
(6.18423 -0.183698 -1.34008e-17)
(6.29721 -0.101979 -8.21983e-17)
(7.52134 0.00813925 0)
(7.67103 0.0747625 -2.82983e-18)
(7.17446 -0.142916 -1.94348e-17)
(7.872 -0.00514286 4.89526e-17)
(6.57616 2.06283 1.33601e-18)
(6.98013 0.136026 4.04907e-18)
(7.05939 -0.318991 0)
(7.09702 -0.26924 5.83659e-18)
(4.58095 -0.458335 0)
(4.86332 -0.507601 6.09203e-17)
(7.4657 0.184428 -4.94429e-17)
(7.82125 0.154415 -2.15393e-17)
(7.52187 0.115387 -7.83375e-18)
(7.43565 0.137324 5.53712e-18)
(5.6809 -0.131304 0)
(5.48751 -0.166838 0)
(3.48217 -1.54611 -2.07335e-17)
(3.28216 -1.56087 0)
(3.20417 -1.73278 -1.76117e-17)
(2.84485 -1.69698 -1.54641e-17)
(7.01662 0.0531682 -7.9071e-18)
(6.7367 0.198157 0)
(6.81601 0.186622 0)
(7.53227 0.0264886 0)
(7.86591 0.0327364 -6.30585e-17)
(4.08725 0.205963 -2.81643e-17)
(4.28011 0.161374 2.37958e-17)
(8.33959 0.0813116 -1.53718e-17)
(8.20734 0.144431 -1.84942e-16)
(8.06551 0.042571 -6.88867e-17)
(7.14525 0.0773466 0)
(7.70704 0.234623 0)
(7.03827 0.0776055 0)
(7.42422 -0.0530579 0)
(7.03137 0.185483 -4.69611e-16)
(4.91199 0.0311522 5.2906e-16)
(7.46447 0.173927 8.74049e-17)
(7.25798 -3.81916 0)
(7.35029 -3.67824 0)
(6.98851 0.0247603 -2.56859e-17)
(6.95247 0.0464076 -6.00973e-17)
(7.02194 0.0414572 1.98253e-17)
(6.93732 0.0602189 8.74851e-17)
(7.90345 -0.252021 6.12637e-17)
(5.03404 -0.0513591 -4.42915e-17)
(5.19875 -0.113066 -5.66826e-17)
(5.36384 -0.0229451 8.89161e-17)
(6.89529 0.121665 0)
(6.88358 0.144876 0)
(6.85463 0.178969 0)
(6.87559 0.170693 -2.93371e-17)
(6.83471 0.211288 0)
(7.00135 0.0616982 4.00909e-17)
(7.31971 -0.0745965 5.52008e-17)
(7.03295 -0.128227 -4.69886e-17)
(7.56727 -0.353796 1.03602e-16)
(7.66043 -0.289993 -6.91724e-17)
(7.64099 -0.270047 -6.40385e-17)
(7.62147 -0.254903 0)
(7.45252 -0.26895 2.43419e-17)
(7.52308 -0.292996 -2.42711e-17)
(4.77621 -0.0790617 -1.74902e-17)
(6.91477 -0.0351906 -7.63104e-18)
(7.8264 -0.227846 2.19226e-17)
(5.01907 -0.422637 0)
(5.18981 -0.365738 -2.51975e-17)
(5.39149 -0.36903 -4.34053e-17)
(3.25366 0.473373 8.70837e-18)
(3.27365 0.533388 7.6731e-18)
(6.4047 0.0975171 2.86648e-17)
(6.31342 0.126563 0)
(3.48557 -0.89131 -3.14099e-18)
(3.40168 -1.06074 0)
(7.69578 -0.100885 -1.22208e-17)
(7.84987 0.0299494 0)
(7.77626 0.1092 2.44293e-18)
(3.67893 0.865342 3.85324e-18)
(3.63816 0.85834 3.64097e-20)
(5.17714 -3.15776 4.09151e-19)
(5.19495 -3.24005 -3.72635e-19)
(2.64969 -0.921389 0)
(3.96948 1.87954 -1.16649e-18)
(7.96 0.17391 -6.94941e-20)
(5.89746 1.01463 0)
(6.52363 0.91165 8.43834e-20)
(6.20265 0.848362 -2.57489e-19)
(2.54895 0.428991 0)
(5.98406 -2.20425 -3.21849e-19)
(9.51908 1.11954 -1.03027e-18)
(8.03316 0.410236 2.91723e-19)
(9.02533 -0.315237 2.34184e-18)
(6.52372 3.23426 -8.60474e-20)
(2.66183 0.449812 4.15352e-18)
(5.46868 -4.29995 9.79068e-19)
(6.79595 -4.50173 0)
(3.59959 -0.7512 0)
(9.44387 1.10115 0)
(5.40766 -4.21324 0)
(5.46902 -4.24562 0)
(6.08641 2.09009 5.42529e-20)
(6.09054 2.1103 0)
(6.46999 0.603343 1.61559e-19)
(7.12632 0.810874 2.34943e-20)
(7.12069 0.852127 -2.63429e-20)
(5.93256 0.94145 1.7097e-19)
(7.42198 -1.16141 1.40296e-19)
(7.45093 -1.24758 7.10347e-20)
(5.82133 -4.53556 9.89685e-19)
(6.24237 0.835031 -1.46124e-20)
(6.3093 0.799402 0)
(7.56488 1.00674 1.65882e-19)
(7.47327 0.746869 -8.12686e-21)
(7.47471 0.783734 -2.31243e-19)
(7.17421 0.856479 0)
(6.57283 -2.10813 0)
(6.57025 -2.0536 -2.34082e-21)
(3.3772 -2.22656 1.99788e-18)
(6.37973 1.00508 1.14508e-19)
(6.37526 0.974635 -3.03564e-20)
(5.31531 -3.88226 0)
(1.54407 -2.05669 3.42514e-17)
(3.85244 1.74191 8.08286e-19)
(3.90458 1.77114 -1.54498e-20)
(2.57015 0.0196145 4.42699e-18)
(4.51611 -1.77672 -1.79984e-17)
(6.02109 2.53966 5.28814e-19)
(8.68319 0.812533 3.89921e-19)
(6.3354 -4.47393 -2.03844e-19)
(2.36877 -0.966339 -1.5831e-18)
(6.64072 2.22604 0)
(6.74144 2.43674 -3.50337e-20)
(6.13524 -2.36923 1.38755e-19)
(3.41614 1.39238 -1.89507e-20)
(6.74778 -4.45953 -2.58589e-19)
(6.77558 -4.45776 6.9081e-19)
(6.11385 -1.51784 0)
(7.24976 -1.42004 0)
(7.05688 -1.67797 -1.44973e-19)
(6.92636 2.87128 -2.28657e-19)
(7.2653 0.593765 -1.01527e-19)
(7.32788 -1.5421 9.06057e-21)
(6.3121 2.28346 0)
(4.78287 0.856513 0)
(8.43639 0.25377 0)
(6.02127 -2.32865 -9.16252e-20)
(2.76097 -3.35793 -2.24956e-20)
(2.87038 -3.14383 1.31646e-18)
(6.81834 -0.797869 0)
(6.83176 -0.899627 9.09127e-18)
(6.0866 -4.4878 -9.6473e-19)
(6.88417 2.67923 -1.08452e-19)
(3.20921 -1.84307 1.26717e-18)
(7.90335 0.706592 -5.03046e-19)
(5.82357 -4.6006 0)
(6.46551 3.27749 0)
(6.40373 3.23958 -1.89122e-20)
(6.06789 2.59 0)
(5.05998 -3.26754 -4.45003e-18)
(6.55782 3.66025 0)
(6.7101 2.76306 3.68489e-20)
(6.63331 0.971776 0)
(4.08019 0.939927 5.74331e-19)
(4.05614 0.900499 2.82325e-19)
(6.13288 0.638547 4.92393e-19)
(7.81253 0.741112 0)
(7.80029 0.782961 0)
(7.88624 0.751938 4.96254e-19)
(5.65496 -2.76027 9.11052e-18)
(6.93834 1.05832 1.89956e-21)
(8.2277 -0.507507 0)
(8.20275 -0.42482 -1.04207e-19)
(2.33875 -2.01914 5.38656e-18)
(6.86778 0.823826 -1.63721e-20)
(6.88898 0.851785 0)
(2.72338 -0.143643 6.48391e-18)
(2.78692 0.0234984 0)
(8.46733 -0.216165 -8.03631e-19)
(8.4564 -0.163994 -5.28501e-19)
(6.21477 3.27747 -6.84881e-21)
(6.9402 -4.50842 3.01246e-18)
(3.70344 -0.884415 1.66229e-18)
(6.78038 2.32109 9.71096e-21)
(6.72646 2.64547 -1.3955e-19)
(6.35338 2.42913 1.68069e-18)
(7.82313 -0.774983 -6.415e-21)
(2.6805 -4.48229 6.31862e-18)
(7.04042 0.862183 -1.27645e-20)
(7.04049 0.826682 7.31089e-21)
(7.57064 3.15167 3.70985e-19)
(7.26065 -1.5663 0)
(7.11257 -1.63196 8.10682e-20)
(5.6575 -4.58186 1.42321e-18)
(1.61239 -1.37247 -6.81168e-18)
(4.16366 1.45308 2.16283e-18)
(8.2858 -0.823014 9.15115e-19)
(5.62996 -2.63567 -2.09792e-19)
(5.64192 -2.70491 5.17009e-19)
(4.00613 1.57988 -9.12969e-19)
(3.94268 1.72284 -1.2129e-18)
(7.35289 -1.47244 -8.04103e-21)
(7.33084 -1.42369 6.26963e-20)
(7.375 -4.00501 0)
(7.9601 -4.982 0)
(7.69749 -0.703917 2.66375e-19)
(8.1439 -0.421382 8.15528e-19)
(8.19135 0.921191 0)
(3.62644 0.950383 -3.62775e-18)
(7.40258 0.947606 0)
(7.77682 -3.15927 9.68898e-19)
(2.38479 -2.11113 1.98295e-17)
(7.72505 -4.27524 0)
(6.45357 2.23758 -6.74941e-20)
(5.37673 -4.2363 -3.6496e-19)
(5.38462 -4.25573 1.51934e-18)
(6.22728 2.33472 0)
(6.26155 2.32665 -3.982e-19)
(6.77051 2.23393 0)
(4.39552 -0.0606721 0)
(6.40932 0.54446 -9.98529e-20)
(9.13542 -2.70453 1.52886e-18)
(6.29745 -2.44054 0)
(6.81316 -2.76226 0)
(6.58927 0.785282 -9.1465e-20)
(6.94365 -4.14709 1.28121e-19)
(6.31949 -0.842232 1.58207e-17)
(6.91619 -1.18545 2.68884e-20)
(7.58653 -4.7497 -1.96627e-18)
(7.64697 -4.72784 0)
(6.00439 1.23784 0)
(2.19006 -4.1064 9.95326e-18)
(3.33783 0.63922 -1.79834e-18)
(6.71791 3.37802 1.96693e-19)
(6.30936 -2.03656 1.00342e-19)
(6.08293 3.11869 0)
(4.11769 1.30922 8.15023e-19)
(4.18644 1.22312 1.55584e-18)
(7.23924 -0.72113 -3.55028e-19)
(5.82023 1.03293 3.15628e-19)
(6.99584 -1.45366 -9.83189e-21)
(7.00115 -1.52685 1.47176e-19)
(7.73466 1.054 -1.96362e-19)
(6.50958 0.568638 -1.74653e-19)
(6.89029 0.761423 0)
(6.97817 0.756447 1.04313e-20)
(5.10433 -3.26634 0)
(4.91844 -3.31154 0)
(3.76826 -0.72814 0)
(2.71518 0.56345 -3.40271e-18)
(2.67673 0.527957 0)
(2.68868 0.674597 0)
(7.41279 -0.225051 1.02167e-19)
(6.85897 2.64347 3.68444e-20)
(7.57545 3.20589 2.12091e-19)
(3.88141 -1.52537 0)
(3.81664 -1.54378 6.9951e-19)
(4.8163 0.826092 0)
(6.61351 2.26178 8.9162e-21)
(4.17357 1.68406 0)
(2.57236 -0.918625 4.49634e-18)
(4.62825 -0.0640066 2.16647e-18)
(4.68948 -0.0768651 -9.30084e-20)
(7.89982 0.581695 -4.78999e-19)
(6.81018 0.638654 8.10522e-18)
(6.66872 2.71283 2.45319e-19)
(4.39474 0.068648 0)
(4.42048 0.00642918 0)
(7.52242 1.42145 -3.79587e-20)
(6.55899 2.26213 0)
(6.43429 -4.44524 0)
(6.34505 -0.504216 -7.0447e-21)
(6.62188 -4.4471 -9.55992e-19)
(6.26213 0.933615 -1.20715e-19)
(6.25361 0.899063 1.83066e-19)
(3.59974 -0.672354 -9.85685e-19)
(6.61318 -1.52578 3.17296e-20)
(6.94237 -4.92676 -4.67338e-19)
(6.62322 2.17755 2.41315e-20)
(6.47475 -4.39284 5.23344e-19)
(7.0934 0.400957 -1.00733e-20)
(7.03267 0.402509 -8.64606e-21)
(4.0824 1.67014 -1.7101e-18)
(4.40421 0.784793 0)
(4.39924 0.840569 2.16244e-21)
(4.92171 -4.51036 6.27711e-19)
(6.49227 0.382328 0)
(6.43863 2.12232 1.63647e-19)
(5.86374 -4.54946 0)
(5.8657 -4.58223 1.01446e-18)
(4.23181 0.579356 -2.54915e-19)
(6.73034 0.852427 0)
(6.80467 0.86721 0)
(6.56587 2.11586 1.70836e-20)
(6.72653 2.22783 6.34116e-21)
(6.77218 2.26512 -7.68776e-21)
(4.79602 -4.99793 -3.38835e-19)
(8.11043 0.515787 -3.77167e-19)
(8.19556 0.51199 0)
(9.07074 -2.74736 3.08638e-18)
(7.2097 -1.53585 -9.65273e-20)
(7.20735 -1.46322 -4.42594e-20)
(7.12298 -1.57317 2.19516e-19)
(5.87027 0.4538 8.40321e-20)
(5.86995 0.509442 0)
(6.1689 0.319881 0)
(6.14942 0.275658 0)
(7.42955 -0.69705 0)
(7.46773 -0.666045 0)
(8.53639 0.99174 5.81978e-19)
(5.70541 3.31749 1.66704e-19)
(6.81107 2.87801 2.08333e-19)
(6.85947 2.85793 0)
(7.34894 -4.21995 4.36065e-18)
(6.00531 -0.321518 0)
(7.72836 -4.87503 0)
(4.41769 0.451031 8.3755e-19)
(6.42038 -4.4196 -6.01973e-19)
(6.34294 -4.43148 1.27773e-18)
(7.69532 -4.62598 3.53384e-19)
(6.10522 -1.6852 3.61067e-19)
(7.04534 -4.67056 0)
(6.53313 2.14874 3.88463e-20)
(6.48932 2.11093 0)
(8.17484 -1.77978 -5.36358e-19)
(8.13221 -1.1166 -8.86667e-19)
(6.93648 0.915044 7.12149e-21)
(4.29893 -0.168703 0)
(7.16655 -4.79046 7.87741e-19)
(5.87273 2.70069 0)
(5.80445 2.68735 2.37631e-18)
(6.44901 -4.46642 -1.47818e-19)
(4.56779 0.230522 1.51674e-18)
(8.21896 0.994535 0)
(1.70909 -1.75147 0)
(6.51144 1.64265 0)
(6.43252 1.73911 0)
(6.19724 -1.68767 5.27526e-19)
(6.6289 1.01755 2.61642e-20)
(6.55721 1.01077 -9.57349e-21)
(6.58039 2.5323 5.97168e-20)
(6.54435 2.55777 -1.3882e-20)
(6.77076 0.555608 0)
(6.19037 2.38227 -2.6213e-18)
(8.91045 0.598532 0)
(8.79287 0.589177 1.53523e-18)
(6.1313 0.89189 0)
(6.16109 2.87634 0)
(6.19398 3.00983 3.20876e-20)
(6.90779 -1.03335 -9.14623e-21)
(6.63908 2.99338 -9.36401e-20)
(6.61822 3.13147 0)
(6.55746 -1.37164 -2.24378e-19)
(7.92355 -0.897454 2.41078e-19)
(8.04463 -0.793576 6.39513e-19)
(6.01141 2.13781 -2.01441e-19)
(6.06562 2.12185 0)
(7.55987 0.740105 -8.34028e-21)
(8.47496 0.811036 -3.55327e-20)
(8.48008 0.873656 3.30195e-20)
(6.41672 -1.62061 -3.20983e-19)
(6.33159 -1.72058 0)
(2.11298 -1.1316 0)
(5.60767 -4.36792 -1.20512e-18)
(5.52061 -4.36071 1.42125e-18)
(6.93616 -1.7655 -3.84611e-20)
(2.92184 0.50151 0)
(6.87274 2.72211 -7.66005e-21)
(6.83817 2.734 9.43574e-20)
(5.22937 -4.18997 0)
(4.62227 -3.70336 -3.42835e-18)
(6.5276 -1.60767 -2.46018e-20)
(6.55575 -1.53273 9.66346e-20)
(6.44947 -1.59006 2.82892e-19)
(4.03518 0.517327 2.48619e-18)
(3.96959 0.626802 1.41475e-18)
(6.51435 -4.37609 1.77725e-18)
(7.63772 0.438643 2.64009e-19)
(6.7987 0.483138 -5.12269e-21)
(6.35565 -4.41255 0)
(6.32956 -4.40093 0)
(6.39647 -4.40741 0)
(2.90936 -2.97935 1.14399e-18)
(2.94822 -3.02943 3.22408e-18)
(5.29369 -1.25481 0)
(6.52217 -1.16416 -9.06051e-20)
(9.00891 -0.0301272 -2.65179e-19)
(9.03996 -0.0648612 0)
(6.04239 -1.01838 -4.06266e-19)
(6.05638 -1.08617 2.62551e-19)
(6.89245 -4.51212 -2.0011e-18)
(6.8388 -4.48098 1.74616e-18)
(6.9258 -4.5417 0)
(4.25779 1.00115 9.73183e-19)
(4.24718 1.1088 7.38861e-19)
(2.24069 -1.86244 0)
(6.56728 -4.43635 -1.20347e-18)
(6.84635 3.06475 -4.54816e-20)
(6.0048 2.25849 3.97189e-18)
(5.67867 -4.51092 1.10673e-18)
(5.68436 -4.54142 0)
(2.6526 -3.30916 -8.11677e-18)
(8.31906 -0.605215 9.22029e-19)
(8.02248 0.178247 6.64395e-19)
(8.14978 0.151556 2.0009e-19)
(6.3215 0.864096 -2.72376e-19)
(2.60836 -0.118435 -6.41408e-18)
(6.34109 3.0605 0)
(6.429 3.06074 0)
(6.68457 -0.707709 -1.12992e-17)
(6.73995 -0.800335 0)
(7.25468 -3.56847 0)
(8.3423 -0.305165 -8.77521e-19)
(8.31681 -0.236378 1.30798e-18)
(8.06883 -1.03523 0)
(8.0002 -1.00735 -3.1406e-19)