/*--------------------------------*- C++ -*----------------------------------*\
  =========                 |
  \\      /  F ield         | OpenFOAM: The Open Source CFD Toolbox
   \\    /   O peration     | Website:  https://openfoam.org
    \\  /    A nd           | Version:  6
     \\/     M anipulation  |
\*---------------------------------------------------------------------------*/
FoamFile
{
    version     2.0;
    format      ascii;
    class       volScalarField;
    location    "1000";
    object      nut;
}
// * * * * * * * * * * * * * * * * * * * * * * * * * * * * * * * * * * * * * //

dimensions      [0 2 -1 0 0 0 0];

internalField   nonuniform List<scalar> 
29884
(
0.276531
0.225857
0.122062
0.155995
0.15636
0.129647
0.193912
0.264111
0.213693
0.141145
0.153475
0.141699
0.15303
0.287756
0.280333
0.192091
0.287516
0.266603
0.279906
0.172809
0.278333
0.118572
0.142525
0.140649
0.144303
0.155028
0.194191
0.219125
0.15019
0.253842
0.148663
0.162953
0.195145
0.185294
0.14375
0.147361
0.249601
0.166571
0.179347
0.187613
0.231725
0.184851
0.176322
0.200849
0.183851
0.166664
0.175433
0.176212
0.136637
0.170881
0.167685
0.174263
0.193106
0.275271
0.263475
0.267732
0.187322
0.284371
0.262399
0.266738
0.198147
0.189904
0.135277
0.171051
0.166635
0.172806
0.280438
0.203971
0.302692
0.211417
0.141248
0.149598
0.143864
0.10938
0.318228
0.281229
0.234271
0.231228
0.225933
0.211596
0.180229
0.197685
0.114546
0.142309
0.126355
0.0971898
0.148766
0.156635
0.139158
0.0719412
0.144867
0.156678
0.100483
0.0634561
0.151732
0.000366504
0.139826
0.139898
0.149682
0.0661109
0.139774
0.13924
0.169623
0.177057
0.153302
0.19627
0.078024
0.0765223
0.153757
0.138825
0.162589
5.85411e-05
0.135625
0.119511
0.141457
0.142046
0.149591
0.111314
0.14768
0.136855
0.139772
0.140997
0.16128
0.140055
0.138625
0.262187
0.225069
0.203304
0.301369
0.147663
0.143003
0.147245
0.254329
0.237478
0.133593
0.143684
0.165756
0.151991
0.163481
0.163631
0.15541
0.161944
0.173156
0.157117
0.170701
0.173781
0.160275
0.165419
0.178535
0.173851
0.171457
0.0946997
0.0830699
0.183246
0.248842
0.215377
0.198709
0.174843
0.229226
0.201002
0.188851
0.156031
0.154206
0.172846
0.000282465
0.000279099
0.204819
0.160437
0.139495
0.139464
0.212175
0.139197
0.139032
0.119082
0.120313
0.151733
0.143915
0.188973
0.142637
0.155882
0.145556
0.12895
0.131146
0.135097
0.117988
0.132134
0.139599
0.139232
0.155395
0.150243
0.155813
0.141454
0.136616
0.143535
0.146338
0.146713
0.141182
0.146817
0.151877
0.149793
0.218051
0.177354
0.153687
0.142319
0.150028
0.136189
0.144197
0.128553
0.140363
0.184731
0.174366
0.215475
0.219212
0.195001
0.257736
0.0451791
0.100929
0.041312
0.11226
0.0389608
0.0369696
0.0601213
0.137484
0.119704
0.0853686
0.0346111
0.0499464
0.0540469
0.00939061
0.0455748
0.0688059
0.0454771
0.0562692
0.0544906
0.0569671
0.0532884
0.0511367
0.138036
0.16378
0.0274882
0.0401229
0.000606914
0.0445853
0.0399
0.0537215
0.123454
0.0527981
0.0443244
0.113486
0.083692
0.0584409
0.0783401
0.114566
0.111331
0.0371842
0.037123
0.0442253
0.041587
0.0987626
0.102875
0.0752449
0.102799
0.026757
0.000906705
0.0825322
0.0424339
0.0592539
0.122806
0.122465
0.0418889
0.0873425
0.0887701
0.0471505
0.0397508
0.035817
0.076713
0.071463
0.0541618
0.0575645
0.0342907
0.166867
0.0570193
0.129451
0.090504
0.138245
0.116784
0.116543
0.0428751
0.000226498
0.137781
0.04863
0.055509
0.0557175
0.0307624
0.0529626
0.0535173
0.108516
0.0557347
0.0565935
0.0436724
0.0803584
0.0519805
0.0537626
0.0530128
0.0536896
0.059665
0.075388
0.131583
0.111167
0.112098
0.11282
0.110325
0.041962
0.0211333
0.0228943
0.0560647
0.057879
0.0523797
0.0633422
0.0601889
0.0724585
0.0637417
0.0584857
0.0586394
0.0581619
0.0896216
0.0408873
0.0420001
0.0441347
0.0389673
0.111234
0.112769
0.11291
0.111312
0.0439074
0.0418722
0.137688
0.103021
0.0476858
0.0459075
0.0604548
0.121187
0.0421839
0.111665
0.135564
0.046529
0.0504769
0.0487905
0.0481625
0.0721899
0.0713849
0.0653035
0.087309
0.0882514
0.0859154
0.0625396
0.0570235
0.0541381
0.0552783
0.0576456
0.0634043
0.0737587
0.13264
0.12128
0.109967
0.110149
0.120542
0.132961
0.000465044
0.0403889
0.0604868
0.0594436
0.136886
0.144206
0.129352
0.100133
0.0955831
0.0621841
0.0541083
0.0562891
0.05285
0.117139
0.12681
0.122624
0.131492
0.0482385
0.0533862
0.0506586
0.0506804
0.0890401
0.0852622
0.0835623
0.0911722
0.0562551
0.0577799
0.0583813
0.0470466
0.0460787
0.0521585
0.0456818
0.0832334
0.0709334
0.0923181
0.0847814
0.0881415
0.0897291
0.027192
0.137246
0.138467
0.139449
0.138704
0.0414039
0.0436136
0.047664
0.0469233
0.044929
0.0595136
0.0753634
0.0341334
0.0391575
0.0405057
0.0219006
0.0532906
0.0567087
0.050409
0.0717662
0.0794282
0.0738443
0.0763422
0.0500601
0.0553056
0.0531134
0.0521654
0.129955
0.0642593
0.0618181
0.0664375
0.0602575
0.0585263
0.0610946
0.0496218
0.0519035
0.0519917
0.0494665
0.151294
0.14996
0.135419
0.0614275
0.059786
0.0612321
0.0593639
0.122027
0.137922
0.0754427
0.0850658
0.130472
0.145158
0.139295
0.130501
0.167426
0.00583806
0.124248
0.125664
0.0757749
0.0486426
0.0504014
0.0521457
0.0475096
0.0816374
0.0905491
0.0865343
0.0861007
0.137941
0.137756
0.138011
0.139667
0.139606
0.165612
0.151067
0.157458
0.158814
0.140563
0.144537
0.142465
0.142394
0.0391627
0.0368844
0.0351753
0.0400361
0.104144
0.102996
0.106627
0.0447289
0.0419267
0.0419664
0.0444237
0.136934
0.134685
0.136188
0.000626469
0.00435737
0.138665
0.0106602
0.119806
0.139543
0.138715
0.000853328
0.00118476
0.13903
0.139051
0.139222
0.138855
0.0776563
0.138504
0.133513
0.000251451
0.000297705
0.13731
0.0443243
0.229773
0.139311
0.256013
0.126247
0.140691
0.138857
0.000627355
0.141346
0.134106
0.140304
0.13778
0.0632475
0.133224
0.137765
0.123002
0.134624
0.144409
0.129558
0.124389
0.17028
0.210733
0.240654
0.107501
0.108193
0.13904
0.139023
0.139746
0.139583
0.130092
0.00564884
0.128412
0.121747
0.10484
0.139111
0.124262
0.139106
0.139084
0.139052
0.0027053
0.138404
0.138619
0.0607645
0.0676198
0.0682242
0.122441
0.243784
0.209395
0.130982
0.127025
0.129266
0.101895
0.107143
0.127552
0.128298
0.184419
0.20468
0.128489
0.252108
0.138237
0.138337
0.253098
0.20694
0.000864287
0.126418
0.261474
0.0961197
0.141821
0.142992
0.000361067
0.0761401
0.0698239
0.137482
0.139566
0.139356
0.126773
0.121054
0.131259
0.129533
0.0397324
0.039646
0.143995
0.141417
0.144945
0.139518
0.139261
0.00096546
0.138915
0.137324
0.13608
0.137804
0.138059
0.13828
0.183992
0.133317
0.136225
0.130126
0.132715
0.160394
0.166209
0.199387
0.177084
0.120991
0.137554
0.133315
0.141314
0.152551
0.143892
0.145766
0.159887
0.15005
0.146691
0.123304
0.119428
0.0565107
0.0519488
0.0480449
0.0386113
0.139016
0.140642
0.142115
0.253557
0.194382
0.0870811
0.0933968
0.200767
0.171975
0.19683
0.145539
0.159301
0.153738
0.16448
0.23469
0.189107
0.181526
0.0589299
0.058795
0.138765
0.138569
0.139558
0.138289
0.156954
0.111343
0.11468
0.118348
0.137578
0.138185
0.137556
0.137642
0.137235
0.13967
0.16203
0.153453
0.132846
0.139522
0.14244
0.145073
0.135546
0.136142
0.212384
0.267937
0.237908
0.109182
0.113532
0.115997
0.00420417
0.00459973
0.136128
0.133519
0.0651744
0.0609667
0.165913
0.168769
0.162047
0.0325514
0.0307658
0.0868786
0.0861855
0.0376885
0.038727
0.042779
0.0793887
0.0733828
0.0772466
0.0291591
0.0955268
0.00603547
0.0414674
0.0175364
0.0608039
0.0346214
0.00927757
0.070512
0.0407619
0.00775119
0.00956853
0.0102629
0.089498
0.089838
0.0732404
0.0618877
0.0622201
0.0791401
0.0525993
0.0516781
0.0244962
0.0768044
0.075849
0.0532356
0.0548969
0.0548716
0.0612576
0.0810285
0.0811275
0.0388917
0.0758153
0.07573
0.0170819
0.00280633
0.0351089
0.0369504
0.0327522
0.104363
0.0946499
0.0252581
0.0527925
0.0265121
0.0816782
0.0769164
0.0932974
0.010254
0.0685243
0.0684076
0.0908528
0.0572649
0.0643712
0.061352
0.0584837
0.0554652
0.0943279
0.0692432
0.0318153
0.0952777
0.0183282
0.021873
0.106239
0.0974241
0.0401596
0.0673664
0.0303023
0.0448993
0.0230271
0.0604919
0.0625638
0.0925069
0.00151715
0.0453583
0.0711234
0.0719395
0.0485929
0.0475277
0.0776062
0.0469123
0.0473122
0.0455096
0.00150195
0.0668797
0.0355198
0.0362523
0.0219262
0.0669389
0.0667476
0.0404478
0.0421229
0.0304791
0.0310448
0.0637168
0.0681459
0.0464972
0.0763472
0.0734952
0.104482
0.0437747
0.00833395
0.0640064
0.0639644
0.0353744
0.0575573
0.0622299
0.015464
0.0016377
0.0482073
0.0337347
0.0967992
0.0965495
0.0416264
0.0388235
0.0546462
0.0553182
0.04723
0.00890039
0.0467405
0.0376733
0.037668
0.0296143
0.0567216
0.0381546
0.0014318
0.0268673
0.0887476
0.00802093
0.00798704
0.0958818
0.0959246
0.118724
0.0676541
0.0740571
0.00910684
0.0923501
0.0820707
0.0718061
0.0640867
0.0527793
0.0672392
0.05427
0.0514272
0.0801292
0.00668831
0.0132549
0.05178
0.0885358
0.0703747
0.0478195
0.0508175
0.0572785
0.079439
0.06564
0.0654374
0.0492877
0.0724892
0.0664407
0.0646708
0.0842725
0.0798877
0.0485493
0.0361774
0.0347645
0.0341096
0.053069
0.0689543
0.0339868
0.0576011
0.0552944
0.0703397
0.0828135
0.0476637
0.0346163
0.0750296
0.0766384
0.0447963
0.136185
0.107541
0.066297
0.0679418
0.0547986
0.0850673
0.0588117
0.0799823
0.0667979
0.0769546
0.0769605
0.0402634
0.0780932
0.0299165
0.0821995
0.0626775
0.0615001
0.0625228
0.0438386
0.0606713
0.0598914
0.059397
0.135299
0.0873262
0.0261531
0.025368
0.0563468
0.0696336
0.0684633
0.083613
0.078604
0.0769195
0.0477654
0.0400506
0.0376555
0.0100086
0.0592152
0.0590773
0.0618028
0.0798953
0.0796333
0.0775492
0.0779762
0.052557
0.0515914
0.0287366
0.0636461
0.0647553
0.0638522
0.0592227
0.0848226
0.0138991
0.0630729
0.0596547
0.0554633
0.0200826
0.0915713
0.0714062
0.0849931
0.085857
0.0332022
0.0362683
0.0663028
0.0661682
0.0313831
0.086804
0.0871111
0.0582929
0.0700011
0.0370766
0.00504196
0.125958
0.124261
0.0898063
0.0722684
0.0734623
0.082017
0.0830368
0.0678
0.103499
0.0195404
0.0230062
0.0780464
0.0794212
0.0732803
0.0669412
0.0659421
0.0619803
0.0789849
0.0410303
0.0388545
0.0894048
0.0898229
0.0527545
0.0305444
0.0304355
0.0841989
0.0865109
0.0160694
0.0162697
0.0113073
0.068972
0.0444472
0.0667557
0.0676309
0.00615282
0.00453714
0.0810803
0.0798674
0.0828711
0.0495166
0.0463846
0.0640816
0.0502548
0.0671417
0.0569139
0.0562804
0.0590394
0.0225912
0.023953
0.121517
0.0793815
0.0182951
0.0174629
0.0904027
0.0903604
0.0687687
0.0687802
0.0691636
0.0543957
0.0534448
0.00406927
0.0651307
0.058339
0.105818
0.0176225
0.0173547
0.0169607
0.0334672
0.041332
0.0386032
0.0759624
0.0350253
0.0942105
0.0955324
0.11563
0.109855
0.0615036
0.0334253
0.0341463
0.0378408
0.0392301
0.100579
0.100017
0.0987887
0.055
0.0597372
0.0538095
0.0176623
0.0262892
0.0764697
0.0360397
0.0371755
0.0554701
0.057435
0.0908484
0.0522855
0.0533517
0.0592275
0.0535351
0.0870006
0.0885874
0.0859241
0.0883726
0.0908814
0.0547455
0.0843524
0.0073254
0.0317022
0.0369
0.0217819
0.022413
0.0653329
0.0838923
0.0604418
0.0630752
0.0665945
0.0673569
0.0639731
0.0650915
0.0620687
0.0478471
0.0465323
0.0333508
0.0481955
0.0336363
0.0654822
0.0660109
0.0647677
0.00606862
0.0646027
0.106076
0.103476
0.0653219
0.0644026
0.0656358
0.0805857
0.0840951
0.0400311
0.0421815
0.04149
0.0406456
0.0583596
0.054078
0.047133
0.0949601
0.0944571
0.0942747
0.0789017
0.088472
0.0298127
0.0358897
0.031662
0.0437141
0.0408163
0.0332488
0.105418
0.0565027
0.0581731
0.0744653
0.106909
0.104008
0.0913522
0.0965536
0.053242
0.0514481
0.0531936
0.0427992
0.0414749
0.0436504
0.0852296
0.0460554
0.0738462
0.0736708
0.104485
0.0431659
0.0793334
0.0792198
0.0793548
0.0371959
0.000957364
0.0656371
0.0531019
0.0514597
0.0120759
0.000402447
0.102075
0.0515506
0.10784
0.0493355
0.0506181
0.0781357
0.0645975
0.0794771
0.112494
0.0153081
0.076306
0.0759593
0.0786673
0.0459732
0.101102
0.0997781
0.102039
0.0914751
0.0938681
0.000667804
0.0607521
0.0587365
0.100021
0.102759
0.0979906
0.000721692
0.000795621
0.0921125
0.0333546
0.0285515
0.0516661
0.0541482
0.0536024
0.0521004
0.0877913
0.0413645
0.0404694
0.067793
0.000606068
0.0724931
0.0730185
0.0804489
0.0792175
0.0970476
0.0249331
0.0638311
0.0623571
0.0982864
0.0985725
0.0253354
0.0860778
0.0867534
0.0867362
0.0679064
0.0672982
0.0802028
0.0871897
0.0930369
0.0543975
0.00199081
0.0433415
0.0603227
0.000566648
0.034837
0.091679
0.061505
0.0072024
0.0612534
0.0592582
0.075799
0.0783292
0.0875837
0.0835857
0.0589993
0.0598434
0.0562715
0.0776659
0.0788427
0.077212
0.0789116
0.0785111
0.000944819
0.0238198
0.000504442
0.0645054
0.00655325
0.13599
0.136173
0.136305
0.135941
0.0834557
0.0639403
0.0633198
0.137787
0.138119
0.0673411
0.0787434
0.0771609
0.0769845
0.0475809
0.092799
0.0673188
0.0692335
0.0934937
0.0896638
0.054576
0.0512711
0.0520692
0.000534468
0.0478254
0.0497334
0.0507488
0.0470814
0.0780026
0.0782959
0.0325166
0.0935988
0.0951186
0.0783947
0.0638313
0.0643295
0.0620059
0.0450011
0.0431863
0.0464896
0.0442783
0.0432087
0.127983
0.0656491
0.041282
0.040351
0.0842481
0.0853886
0.0926293
0.0926468
0.0933801
0.0919338
0.0751611
0.0747736
0.0796908
0.0654687
0.0659447
0.0647331
0.0984025
0.0961739
0.000312651
0.0505063
0.0520356
0.0256265
0.021806
0.000438583
0.00058623
0.000571875
0.0397665
0.0391664
0.0131948
0.0136441
0.105395
0.0895092
0.096721
0.0688988
0.0391345
0.0243976
0.0233668
0.0268825
0.0646887
0.0642816
0.0651189
0.0641775
0.000443367
0.000762423
0.000710617
0.00109939
0.00933083
0.0146671
0.047531
0.0463676
0.000827624
0.044106
0.0257654
0.0921571
0.0919274
0.0944661
0.0911414
0.0918245
0.0908571
0.105225
0.106785
0.104101
0.102378
0.0763016
0.0606859
0.0627554
0.0600345
0.0566719
0.0577785
0.0545932
0.116305
0.10503
0.110071
0.0944541
0.0953588
0.0954237
0.0796462
0.0716239
0.0718345
0.0707743
0.0679974
0.0722319
0.0709778
0.070223
0.0694466
0.0702164
0.000410842
0.000690051
0.0894492
0.0903326
0.0898657
0.0898851
0.0350879
0.0666753
0.0669967
0.0657938
0.0917558
0.0930554
0.093478
0.0912051
0.0567048
0.0571748
0.0556882
0.172876
0.0384807
0.0672761
0.0673128
0.0667595
0.0679176
0.0783389
0.08433
0.0711935
0.0730225
0.0893017
0.0858999
0.0254758
0.128365
0.0337555
0.0323506
0.10528
0.000361373
0.06148
0.0694614
0.0852388
0.0859919
0.0835049
0.0836219
0.0846064
0.00861587
0.0444267
0.043969
0.0457436
0.0491174
0.0511537
0.0459956
0.0548147
0.0577148
0.0570092
0.00482069
0.0048662
0.0542045
0.054711
0.0630365
0.0626615
0.0639359
0.000336408
0.0570359
0.000555307
0.0832221
0.0637073
0.0616436
0.063402
0.0613233
0.00192555
0.0512302
0.0528429
0.051677
0.0897575
0.0703221
0.0795207
0.078474
0.0650868
0.0645237
0.0638869
0.0656826
0.0427296
0.0396756
0.0416925
0.0403737
0.0607935
0.0587879
0.0609063
0.062195
0.00105037
0.00511225
0.0900798
0.0904541
0.089693
0.0907605
0.0586933
0.0603625
0.0605268
0.0349621
0.0640631
0.0639039
0.0657206
0.0727389
0.0709564
0.0728692
0.0949585
0.0969119
0.0955963
0.0968312
0.0981255
0.0506109
0.0487072
0.0486313
0.0505894
0.103185
0.10497
0.1043
0.103716
0.0484374
0.0466266
0.0508086
0.0524535
0.05137
0.0892811
0.0900842
0.0875763
0.0603573
0.0577805
0.0704446
0.0719833
0.120614
0.119023
0.119319
0.120393
0.0817888
0.0783376
0.0794307
0.0601984
0.0626746
0.0479751
0.0449453
0.0443749
0.0266048
0.0722332
0.0693872
0.0597699
0.0607979
0.0608086
0.0449941
0.0863209
0.088261
0.0880617
0.0863452
0.00109511
0.0587239
0.0605097
0.0588317
0.0603272
0.137029
0.137192
0.0618652
0.0596636
0.0602777
0.0612172
0.0517146
0.0520353
0.0503586
0.0396522
0.0430627
0.0387403
0.0537405
0.0561032
0.0541551
0.0557308
0.0816917
0.0810303
0.0736725
0.043211
0.0425342
0.0435182
0.0421386
0.0073688
0.0920364
0.00719417
0.00711987
0.0926731
0.0919446
0.0920167
0.0925589
0.0637012
0.0575586
0.0572164
0.0952757
0.0943411
0.0959462
0.100949
0.0852009
0.0689932
0.0696216
0.0685568
0.0583212
0.0543974
0.0561661
0.0564637
0.039043
0.0780779
0.0773633
0.0164951
0.0202817
0.0581678
0.0565092
0.0573437
0.00113591
0.0512993
0.0899688
0.0743493
0.0738205
0.0757586
0.0824315
0.037812
0.0362434
0.0384898
0.110946
0.108306
0.109708
0.0576302
0.0578285
0.128512
0.129557
0.0540482
0.0551204
0.0563785
0.0990555
0.0953318
0.0891854
0.0186585
0.0228636
0.0209122
0.0164854
0.0160733
0.0117762
0.00974126
0.0151232
0.0567308
0.0675154
0.0691464
0.0590605
0.0580403
0.0606314
0.0870932
0.0852525
0.0704622
0.0702469
0.0922737
0.092788
0.0489218
0.0511088
0.104192
0.118855
0.0965917
0.0974313
0.0836347
0.085988
0.0821875
0.0858267
0.087714
0.0867496
0.0229779
0.027529
0.0721645
0.0693079
0.0706998
0.0707169
0.0739368
0.0568293
0.0582849
0.0586304
0.0446774
0.0440436
0.0459666
0.0426477
0.000803986
0.0598506
0.0608555
0.0616808
0.0739233
0.0697222
0.0405847
0.0391961
0.0830751
0.0815614
0.0844179
0.0760992
0.0823066
0.0703616
0.0704508
0.0707544
0.070149
0.039308
0.0924612
0.0914383
0.0494435
0.0491224
0.0505305
0.048098
0.0612895
0.0619395
0.0605832
0.0085186
0.00941108
0.00710254
0.082911
0.0844826
0.0804391
0.0415788
0.0402289
0.0601469
0.0574833
0.0520139
0.0526762
0.0532725
0.0779152
0.0586634
0.0606998
0.0608369
0.0797953
0.0412562
0.0395927
0.0402209
0.0406538
0.111172
0.109281
0.109419
0.11094
0.0722016
0.0622793
0.0633812
0.0619943
0.0640071
0.0897884
0.0926019
0.0922464
0.0932901
0.0916548
0.0909767
0.0919423
0.0924026
0.0906524
0.0345368
0.0606126
0.0609557
0.0710114
0.0714739
0.000536129
0.00873603
0.0708535
0.0703456
0.0698232
0.0710437
0.0586198
0.057959
0.0594139
0.067833
0.066999
0.00649826
0.00781731
0.0611213
0.0590976
0.0602321
0.0600541
0.0753112
0.0887071
0.0877474
0.0883343
0.00781612
0.0578514
0.0571116
0.0585641
0.056373
0.0400941
0.0413459
0.0401557
0.0411717
0.0846506
0.0843012
0.0836535
0.0771756
0.0343317
0.0331305
0.0324244
0.0348731
0.0278818
0.0290176
0.0708611
0.0969311
0.0964967
0.0971835
0.0476997
0.0499167
0.0492292
0.0483158
0.0785961
0.0789488
0.0618614
0.0632299
0.0636336
0.0613774
0.0414475
0.0554675
0.0557993
0.040873
0.0239094
0.0213757
0.0490016
0.0510837
0.0750225
0.0743716
0.0755534
0.0986755
0.0980378
0.0976694
0.0320181
0.0307541
0.0314678
0.064996
0.0662111
0.066548
0.0646366
0.0347307
0.0446373
0.0442752
0.0456713
0.0432395
0.00403639
0.0363877
0.0510614
0.0549783
0.0622789
0.0634317
0.0638647
0.0617703
0.128172
0.0897827
0.0890468
0.0890822
0.0896835
0.0640916
0.0658481
0.0632389
0.0443308
0.0916592
0.091034
0.0916673
0.0588086
0.0617422
0.0456308
0.0500977
0.0481221
0.0660113
0.0652883
0.0664872
0.0893873
0.0366743
0.075333
0.0505924
0.0464932
0.0886421
0.0879601
0.0912941
0.0150805
0.0124931
0.0167706
0.0767884
0.0670901
0.0681019
0.0665718
0.0421684
0.0408389
0.0876741
0.0852942
0.0859546
0.0871293
0.0913133
0.0907779
0.0437202
0.0456694
0.0909033
0.0891949
0.090958
0.0889083
0.123937
0.124355
0.0523672
0.0895498
0.0893649
0.0892679
0.0734279
0.0743931
0.0731714
0.0167902
0.0501641
0.0495843
0.0521463
0.0478662
0.0563017
0.0595876
0.058222
0.0575105
0.0474332
0.0453275
0.0464929
0.124372
0.108274
0.122858
0.113122
0.0247234
0.0803876
0.079455
0.11404
0.115658
0.0455755
0.0446798
0.0443379
0.0458193
0.0908976
0.0901981
0.120475
0.118658
0.0485346
0.0720715
0.0743622
0.0740764
0.037661
0.0338508
0.0367786
0.0338168
0.0280719
0.0307889
0.0623883
0.0637545
0.0626575
0.0454825
0.0397684
0.0432748
0.042524
0.0667748
0.0657935
0.108657
0.098726
0.0582452
0.060799
0.0599811
0.0586312
0.077433
0.0277443
0.0296633
0.0317044
0.0264031
0.107715
0.105955
0.108649
0.0334856
0.035064
0.0342278
0.0347529
0.0337024
0.0352244
0.0744947
0.0775253
0.0363676
0.0379478
0.095561
0.0649972
0.0901773
0.0889871
0.0828075
0.00373889
0.0894308
0.0873278
0.0880573
0.0484364
0.023833
0.0481033
0.0979991
0.088169
0.0847122
0.105033
0.0790109
0.0798578
0.0789629
0.0531216
0.0546429
0.000269515
0.0538871
0.0432739
0.114936
0.112994
0.113601
0.114366
0.0683266
0.0702878
0.0702308
0.0682984
0.102745
0.103731
0.102049
0.104303
0.0366835
0.0372989
0.0378259
0.0360954
0.0793297
0.0790535
0.0802724
0.0780568
0.0436338
0.0446109
0.0419367
0.0292771
0.0351639
0.0435788
0.0678423
0.0664169
0.12348
0.122304
0.0553751
0.0263411
0.0943293
0.0948613
0.0952727
0.0415365
0.0674331
0.0662266
0.064864
0.0685911
0.0944507
0.0755964
0.0737734
0.0738756
0.0754501
0.0479204
0.0445298
0.0467572
0.0454397
0.0883469
0.0879408
0.0886049
0.0876497
0.0762072
0.0746222
0.0750599
0.0757533
0.0867124
0.0858316
0.0873419
0.0851799
0.045322
0.0423457
0.0447487
0.0428066
0.0572732
0.0551567
0.0634973
0.0619943
0.0617937
0.06319
0.11443
0.117211
0.115656
0.0786575
0.0684087
0.067258
0.0675124
0.058293
0.0550632
0.0575646
0.0543213
0.0549776
0.0526104
0.0533808
0.0245524
0.0851439
0.0842934
0.000254992
0.0573134
0.0592767
0.0573195
0.0591529
0.0791852
0.0648295
0.0752802
0.0589743
0.00399499
0.00406092
0.00424964
0.0651273
0.0659571
0.127928
0.0615062
0.0607286
0.0544259
0.0533942
0.0543544
0.0611307
0.0622813
0.061625
0.0622852
0.0709818
0.0713458
0.0709367
0.0886861
0.0918232
0.0411466
0.0429999
0.0418821
0.000222379
0.0606952
0.0613628
0.109889
0.108373
0.068047
0.0693464
0.0665547
0.0706653
0.0302646
0.0332884
0.0344582
0.036799
0.118724
0.117564
0.0550096
0.0541872
0.0557047
0.0536318
0.0594575
0.062431
0.0608543
0.110596
0.108031
0.109174
0.109383
0.0856039
0.0847669
0.0859276
0.0842991
0.082871
0.0842387
0.0841134
0.0828967
0.0757337
0.0761143
0.0748338
0.0320084
0.0326928
0.0329294
0.0316575
0.0512651
0.0534298
0.111322
0.0285921
0.0329443
0.0318123
0.00118416
0.0486217
0.0469367
0.0478947
0.0747433
0.0730436
0.0810192
0.0818949
0.0806787
0.0821401
0.0365456
0.0326732
0.086543
0.0862719
0.0857478
0.087038
0.116583
0.11756
0.118021
0.116052
0.0484345
0.0497371
0.0479305
0.0504326
0.0725864
0.072635
0.0727283
0.0497832
0.0507735
0.051565
0.0489641
0.0761459
0.0766358
0.0757961
0.0536841
0.0882861
0.0875244
0.0884021
0.0874766
0.0237468
0.0383577
0.0150034
0.0112174
0.084812
0.00457892
0.00326813
0.002999
0.0289641
0.04759
0.0117676
0.000608922
0.000823396
0.000581318
0.000289713
0.0320734
0.000376975
0.000440265
0.0103289
0.0101877
0.057658
0.011165
0.0102062
0.138813
0.0168348
0.128838
0.014261
0.030235
0.0302269
0.0103767
0.000505668
0.0813491
0.0138942
0.00586842
0.00621153
0.00977577
0.126845
0.13704
0.0158492
0.0169436
0.0323487
0.00282185
0.0887493
0.137245
0.0911866
0.122571
0.119113
0.0628555
0.00334164
0.0154193
0.00039116
0.000585899
0.000559885
0.0247854
0.0232827
0.0067811
0.0249305
0.00266066
0.00314482
0.0229751
0.000591881
0.0786523
0.0381801
0.138662
0.138541
0.000461459
0.0241394
0.0227503
0.0127588
0.00776785
0.0275034
0.0272339
0.0281619
0.0710767
0.0739094
0.00673354
0.0759411
0.137512
0.137167
0.0232584
0.000549009
0.00508822
0.00413388
0.0714523
0.0120423
0.0197401
0.000490298
0.022697
0.0236005
0.130141
0.00300757
0.0152662
0.0132153
0.138388
0.114151
0.0042263
0.0801723
0.0377593
0.0077182
0.135162
0.0314761
0.00231806
0.0351294
0.0340364
0.00889426
0.0202852
0.021108
0.0228841
0.0185448
0.0263185
0.0270812
0.0280039
0.0364315
0.00174165
0.01968
0.039982
0.136142
0.0173201
0.118904
0.0195785
0.147953
0.000566361
0.0220105
0.0209499
0.0219587
0.0949885
0.0295238
0.0304114
0.00559308
0.000367164
0.00143219
0.00258587
0.0758205
0.0732196
0.0172131
0.0284336
0.00518697
0.00645422
0.00248792
0.029431
0.0311458
0.166553
0.00211595
0.137209
0.137628
0.0536614
0.015752
0.0350235
0.0870762
0.0856773
0.0344495
0.0329486
0.0512145
0.0315673
0.00823867
0.00473044
0.0454768
0.0161136
0.0221676
0.0467611
0.0475606
0.0445828
0.0051814
0.00813927
0.0714388
0.0705689
0.0446384
0.0410477
0.0280154
0.0347072
0.0358222
0.0779018
0.00386048
0.00394711
0.0468328
0.138559
0.00427563
0.00570838
0.00498868
0.00313392
0.00421919
0.00476223
0.0063537
0.0178988
0.00383716
0.00501475
0.00679111
0.00425371
0.00575867
0.0303873
0.0297011
0.0450574
0.0052437
0.00740542
0.0355014
0.000515426
0.00081877
0.0306298
0.00298361
0.0267967
0.0239646
0.0241536
0.0231083
0.00759629
0.00859027
0.00685804
0.00899435
0.123303
0.00607593
0.0783859
0.0774778
0.0772655
0.0474529
0.0368299
0.00626121
0.0201245
0.00602403
0.131222
0.0336812
0.00253195
0.0117938
0.0110538
0.013497
0.0100105
0.00680627
0.140005
0.0330143
0.0356696
0.00488604
0.00382208
0.0709703
0.0679055
0.171684
0.166457
0.00738728
0.0195719
0.138778
0.0303317
0.0301072
0.00054251
0.00779123
0.0141106
0.117569
0.120116
0.0100181
0.0562065
0.00948268
0.008229
0.00936213
0.00437075
0.0608987
0.0638135
0.0661497
0.00127922
0.0350418
0.14912
0.147206
0.114855
0.0843
0.0192019
0.043447
0.0406001
0.0662673
0.13919
0.139066
0.0289603
0.137491
0.00172916
0.00217128
0.00910552
0.0250727
0.0113379
0.0408034
0.0408739
0.0393802
0.0394566
0.00439686
0.00269823
0.00188576
0.173527
0.0677022
0.0115917
0.120904
0.129652
0.130197
0.0426411
0.0720041
0.0699677
0.166247
0.148189
0.00143083
0.00789626
0.0730032
0.0710817
0.00652022
0.00596064
0.0345693
0.0339094
0.0815916
0.0796862
0.0784788
0.0820975
0.0416703
0.0212652
0.0196224
0.0889815
0.0364197
0.0361063
0.0443588
0.0285922
0.0354272
0.0178151
0.00474332
0.0326483
0.0047449
0.157106
0.0105818
0.011818
0.0237035
0.0560678
0.0306569
0.0234237
0.100929
0.0939406
0.109341
0.0239458
0.083399
0.0219319
0.138147
0.0398884
0.00175177
0.0372073
0.00360975
0.00372529
0.137745
0.0303162
0.0301947
0.020076
0.137724
0.111437
0.11896
0.0284425
0.04528
0.0464825
0.0784654
0.0793048
0.0428047
0.0330848
0.0359559
0.0338479
0.0354986
0.0956285
0.0834271
0.136073
0.136602
0.0905833
0.0905763
0.067019
0.0071722
0.00614998
0.0705039
0.0164823
0.136769
0.0638255
0.065894
0.0677661
0.0598652
0.0577155
0.0592839
0.127084
0.14701
0.139268
0.0689789
0.067577
0.0682565
0.12243
0.00874506
0.0395496
0.0328651
0.0153142
0.0149884
0.0986518
0.0271907
0.0496431
0.0541041
0.0302394
0.170503
0.0146094
0.0385374
0.0163412
0.027434
0.010405
0.0185172
0.0189424
0.121672
0.124121
0.123058
0.0310264
0.0318651
0.0116253
0.0677118
0.0179104
0.0214725
0.032753
0.029348
0.0288884
0.0548839
0.0719312
0.0466627
0.0492416
0.132949
0.126959
0.00172927
0.00228806
0.13868
0.0196508
0.00809843
0.0124273
0.118984
0.117476
0.138555
0.109751
0.138664
0.13295
0.132186
0.0201281
0.0296342
0.126071
0.126961
0.124848
0.125468
0.0579643
0.0557835
0.0960994
0.0982988
0.125712
0.123482
0.00319816
0.118813
0.117705
0.047896
0.13891
0.13874
0.138685
0.107214
0.103748
0.137672
0.139693
0.138333
0.072211
0.0319738
0.0340811
0.0348304
0.0607284
0.0607534
0.0613543
0.169244
0.169431
0.0846526
0.0390304
0.0409889
0.17331
0.170025
0.0502381
0.0507215
0.0382679
0.0312634
0.000387048
0.00254031
0.077703
0.0125776
0.0151934
0.0163175
0.0762565
0.000789368
0.00123868
0.0613302
0.0630272
0.0197975
0.0080051
0.00873449
0.0101953
0.00556972
0.0324525
0.0330736
0.0361945
0.11317
0.114897
0.0211549
0.0140937
0.0151084
0.00617923
0.00701682
0.129483
0.127669
0.151161
0.159396
0.164968
0.109269
0.0583144
0.0574824
0.0498722
0.054597
0.0530681
0.0724981
0.0826509
0.0439203
0.042435
0.0225906
0.0240118
0.138677
0.138603
0.242661
0.227088
0.0371052
0.00800421
0.0373427
0.0105837
0.0132939
0.0115823
0.0115425
0.00714567
0.137815
0.0283924
0.0341295
0.0465879
0.0435493
0.0603743
0.0616522
0.0462078
0.044526
0.0422309
0.0471438
0.018306
0.0126212
0.0407791
0.0109554
0.0327587
0.136641
0.0128565
0.0136707
0.160218
0.163262
0.0345125
0.0321983
0.0287831
0.00944015
0.0381415
0.0393414
0.056532
0.0417511
0.0409597
0.0583775
0.0240169
0.00053119
0.0433361
0.0441816
0.0165205
0.012958
0.0154471
0.0824201
0.0831994
0.0822919
0.0483794
0.0857794
0.0853811
0.0694904
0.0678314
0.133658
0.0975072
0.0982372
0.0405973
0.0431564
0.042925
0.052993
0.0754434
0.0111933
0.139919
0.139674
0.139881
0.135152
0.0598976
0.0206656
0.0222339
0.02889
0.0256347
0.0579334
0.0347102
0.0370749
0.0514666
0.0558258
0.0388013
0.0413169
0.0985256
0.104177
0.108639
0.0290884
0.0289063
0.0427996
0.0431051
0.0354041
0.0731261
0.0714865
0.0782039
0.128263
0.0376475
0.00532931
0.00598858
0.135311
0.023692
0.0652129
0.00349775
0.0294169
0.0275068
0.0298788
0.0195772
0.0258638
0.0674531
0.0152031
0.0126667
0.0113611
0.0947473
0.0326218
0.000885268
0.00149133
0.0648504
0.138267
0.0912745
0.0917369
0.0411163
0.111707
0.10668
0.0194828
0.0202472
0.0447105
0.0423324
0.0440253
0.074507
0.0208446
0.0218692
0.140027
0.140516
0.0358876
0.0218549
0.0200162
0.0392133
0.138781
0.0917811
0.0898777
0.0433913
0.0720231
0.0327978
0.00318449
0.00235068
0.00501288
0.0451704
0.0907383
0.00377158
0.183112
0.00242731
0.00450608
0.00685301
0.00428936
0.00361034
0.00378574
0.00267606
0.00402799
0.128988
0.0363384
0.0378446
0.0306007
0.0450447
0.0884859
0.0844107
0.13936
0.13949
0.139283
0.0713969
0.0950487
0.0935961
0.067953
0.0659034
0.0635367
0.0380682
0.0384345
0.0667644
0.0648966
0.0189902
0.0210549
0.0235905
0.145591
0.150642
0.138171
0.137973
0.048298
0.119946
0.116155
0.0308799
0.0331472
0.137576
0.137254
0.0044668
0.0768425
0.0748
0.139086
0.138807
0.00903647
0.133906
0.0656954
0.0723352
0.0548305
0.0329093
0.0200983
0.00391171
0.0338996
0.0936359
0.0703416
0.070948
0.023129
0.0276982
0.0294492
0.00250676
0.0686461
0.0693067
0.0605635
0.124628
0.125137
0.12611
0.038364
0.0464053
0.0494197
0.0500174
0.0487572
0.0547048
0.105647
0.107317
0.0443143
0.0430812
0.0437049
0.0424564
0.0440801
0.0452927
0.00134526
0.112622
0.113715
0.115746
0.0207658
0.0188867
0.0634704
0.0631597
0.136698
0.136673
0.0350072
0.0384653
0.126574
0.127421
0.0499079
0.0501688
0.0486546
0.231434
0.187591
0.0799868
0.0782572
0.0165407
0.0185112
0.121133
0.061376
0.0629653
0.131392
0.130598
0.129779
0.0331031
0.0362225
0.138464
0.138177
0.0532345
0.0521465
0.0538026
0.0449433
0.0419169
0.107957
0.107573
0.106476
0.0171972
0.0219061
0.067188
0.0677374
0.0151959
0.138062
0.138239
0.0582539
0.126841
0.122965
0.021495
0.0622704
0.0655324
0.0357848
0.0363496
0.0364476
0.138252
0.118233
0.103096
0.109617
0.115032
0.0238623
0.0739919
0.138204
0.0199144
0.00225672
0.00468744
0.0608869
0.0607448
0.0149104
0.0704242
0.0530577
0.049063
0.120504
0.14729
0.0434734
0.0455911
0.0288395
0.0632147
0.0673707
0.0134112
0.0543808
0.0528517
0.0647033
0.0059051
0.00594242
0.121625
0.0523458
0.0524324
0.0503322
0.0351939
0.0405512
0.0364774
0.0492102
0.0503904
0.0100694
0.0512387
0.0506319
0.0562793
0.0534216
0.0530108
0.00813427
0.00718365
0.0906908
0.089712
0.0886761
0.0530245
0.0483837
0.052681
0.0465698
0.0484135
0.00348465
0.0334603
0.0967093
0.0967327