/*--------------------------------*- C++ -*----------------------------------*\
  =========                 |
  \\      /  F ield         | OpenFOAM: The Open Source CFD Toolbox
   \\    /   O peration     | Website:  https://openfoam.org
    \\  /    A nd           | Version:  6
     \\/     M anipulation  |
\*---------------------------------------------------------------------------*/
FoamFile
{
    version     2.0;
    format      ascii;
    class       volScalarField;
    location    "1000";
    object      p;
}
// * * * * * * * * * * * * * * * * * * * * * * * * * * * * * * * * * * * * * //

dimensions      [0 2 -2 0 0 0 0];

internalField   nonuniform List<scalar> 
29884
(
2.79305
0.0866175
0.624128
-2.55776
-0.0663979
2.55956
0.110449
-4.42293
-0.838897
1.16228
2.90548
0.743259
-1.17759
-2.37905
0.0262749
-1.93962
-0.325911
-2.20616
-4.4498
-2.96887
-3.4765
0.643657
0.3783
3.48357
-1.47466
1.2382
-0.767432
-1.34867
0.428593
0.379311
3.19306
2.75707
-0.774606
5.37859
1.92189
1.78724
0.818203
3.0483
1.83311
0.985614
0.722163
-1.62791
3.12843
5.13498
-3.52922
0.478539
-2.27002
2.11687
0.690376
2.53314
3.18843
-0.215567
1.19999
-0.867753
-2.93817
4.33027
-2.70562
-1.67785
-3.72693
-0.638092
-0.314963
-0.799267
-0.210623
1.11637
2.17401
-1.85623
1.3187
1.55231
0.702262
1.50894
-0.333624
-1.06853
7.96679
0.787277
0.493817
1.48983
-2.79385
-1.33214
-2.61468
0.830147
2.12726
-3.23656
-0.377537
2.14845
-0.237788
15.2696
0.771249
-0.638846
0.140311
19.0728
0.493328
-2.33855
15.0983
20.4403
2.77418
24.8098
1.27172
1.38511
0.142065
20.3587
1.64433
1.8024
0.13716
0.527145
0.333686
-1.87268
18.4123
18.925
3.16182
1.57522
1.23921
24.7885
-0.0890623
-0.221744
-0.210552
1.99022
2.48301
-0.0480232
3.8621
3.34915
0.914653
2.48707
2.06506
2.7827
-0.370969
3.50245
1.16139
1.44369
-0.752211
3.05325
3.2722
2.93076
-4.33643
-2.31162
-0.213636
-0.656664
2.29011
0.323431
0.311021
0.586844
0.319749
3.1132
1.95119
-1.9523
-2.11572
-1.88962
-1.5601
2.53024
2.02062
2.20638
2.72905
16.6302
18.0238
0.689328
0.591931
0.981948
0.533578
1.1305
0.815699
0.588008
0.911849
3.46766
3.64716
2.7697
25.6201
25.536
-2.48024
-0.97688
1.12029
-5.85107
-2.74809
1.2923
1.31118
-0.379141
-0.227755
2.72306
3.02639
-2.83285
2.00734
1.72947
1.86275
5.34888
5.41491
4.75982
-0.141103
-0.109826
1.31326
1.17431
1.27278
3.264
0.521287
4.30761
4.88697
-0.232079
-0.317728
2.63542
2.68682
0.779646
0.00767649
0.193952
0.34253
2.60597
2.53472
1.7304
2.59463
3.93184
0.107248
-0.29527
-0.404102
-0.782949
0.562059
-0.606112
-1.80937
-3.55985
-1.6054
18.5889
3.00839
20.4013
0.321611
21.738
22.029
-10.8848
2.40878
0.523961
16.7071
22.128
20.0993
21.5945
13.5977
-6.62344
4.95808
20.4443
18.9571
-6.81741
-7.24035
19.1302
19.2467
2.832
-3.8307
-3.11125
-3.79193
24.6578
19.1001
-6.06407
-4.12105
3.2367
19.4547
20.5802
-8.88564
-9.9336
-5.36646
1.04822
3.00611
2.8874
22.6142
22.301
21.2575
21.6399
-10.8421
-9.76886
-0.422143
3.39077
-6.19592
23.1926
2.64472
20.8722
-9.33559
2.56788
2.17505
20.9701
1.64851
1.78407
21.088
20.5274
20.6625
17.6936
18.4322
21.3082
21.0222
-4.70379
-0.948259
19.2048
1.58163
1.94588
3.84272
3.22517
2.89334
-8.81745
25.7484
1.92195
22.2373
19.1396
19.1113
-5.46552
-9.02006
-9.18573
3.49584
19.1189
19.2328
-5.64086
-4.95909
19.8785
19.6989
19.9452
21.286
17.5175
16.5003
6.62119
3.04764
3.26562
3.25928
3.5431
20.8605
-5.09783
-5.49365
-9.05032
-6.03916
19.681
-10.6071
-9.71131
-10.3636
20.3073
20.863
21.0779
-9.85012
1.84731
20.1127
20.6893
20.7497
21.1216
2.60264
2.18928
2.17161
2.24803
19.1448
19.0807
2.29915
-4.0823
22.1425
22.0805
-7.409
-3.27025
21.9424
8.09118
0.326278
22.3512
21.9267
22.0911
22.1218
19.6376
19.3207
20.2497
1.69985
1.7976
1.37563
20.7103
21.2864
21.4176
21.4105
21.3323
20.1461
19.1791
6.2253
0.780462
2.81817
2.68199
2.6903
2.60135
25.0305
22.9297
-6.53632
-5.51673
0.488386
0.620762
0.443311
3.38054
2.77409
-7.48018
-9.21799
-9.72212
-9.75041
11.8154
4.04171
3.99744
3.56744
-5.46055
-6.04414
-5.93304
-5.26651
16.4979
17.6625
18.6937
17.1674
-6.47693
-7.00647
-6.5144
19.1683
19.4915
-3.95673
-3.80672
17.8403
18.9864
16.3515
17.6539
16.7654
16.4723
20.5854
3.08668
3.2994
2.08395
2.36279
18.9186
18.6827
22.1889
22.362
22.5676
19.7168
0.17535
18.7837
18.334
19.2462
-3.25589
20.7604
20.6127
21.4904
19.7685
19.211
18.9588
18.5151
20.8019
20.3964
20.5398
19.9754
-4.02788
18.3437
19.2942
19.2571
19.5389
-4.71025
-5.10346
20.5555
20.1902
19.5625
19.7728
3.90509
3.51935
4.12365
-6.71305
-5.64273
-7.36442
-6.67414
-0.000477051
-1.43765
14.4749
14.3021
1.07881
1.1449
1.11903
1.18699
-1.32736
25.247
6.68395
5.9545
0.786239
-6.52458
-6.1439
-6.52003
-5.94595
16.3801
15.4486
15.7718
14.6538
1.63231
1.49844
1.64047
0.992239
1.03559
1.09822
0.667932
0.887307
0.814213
3.69107
3.47275
3.55693
3.95733
-5.60754
-5.07572
-5.68919
-5.93249
3.35518
3.05221
3.22222
22.1348
22.3463
22.1873
21.6447
4.23478
5.01687
4.46069
24.6305
25.2845
1.44512
24.9301
10.9215
0.908371
0.881297
24.8077
24.6835
0.922067
0.948545
0.953373
1.40824
-8.45538
0.98299
-0.51327
24.8831
24.8938
2.40916
20.6699
0.0428847
1.06014
-4.18242
-5.90647
-1.74426
-1.95219
23.7111
-3.6177
-4.10339
-0.200264
2.05637
-5.61322
-0.0137718
0.121696
0.124811
0.262942
-1.84994
3.09049
3.13547
-2.76874
-2.6591
-2.83328
-0.148085
-0.445054
1.28549
1.32804
1.13657
1.08269
4.66999
23.4248
2.21077
2.17024
-0.0286542
1.2091
-0.444454
1.01252
1.08824
1.12193
25.1962
1.47719
1.41695
-8.35375
-9.39762
-8.26637
-2.40401
-6.43688
-4.90375
-0.423429
-0.363674
-0.396526
14.7204
13.9087
-3.05688
-2.68417
-2.29194
-1.71678
7.32355
-4.66993
-0.922136
-0.756288
-2.40109
-2.70406
25.062
0.207029
-1.14866
14.5444
-0.0929267
0.22935
25.7055
18.8234
19.4538
2.25328
1.15993
1.23015
-7.51151
2.68226
6.41586
7.18267
22.3701
22.1858
4.0165
4.52134
4.3276
1.09314
1.04089
23.7242
1.34566
3.59614
3.82122
1.94229
1.7491
1.60548
2.4727
5.71977
5.09926
6.26678
5.62071
2.8685
0.524213
1.70482
-0.725579
1.87508
0.338109
0.732376
0.868824
-5.76535
-6.81151
-1.45439
-0.0688704
-0.445625
-0.943408
9.41368
10.6597
19.5451
19.9571
20.3518
21.5433
0.893015
3.10208
2.89469
0.670085
1.31204
17.5007
16.8091
-3.64343
-3.90763
-3.1719
2.07851
0.981354
3.19104
3.5433
6.94419
3.77258
4.41913
-9.68287
-10.3576
1.18411
1.35309
1.15996
1.38795
-2.61451
12.8769
12.1327
11.3142
1.68265
1.78225
1.89591
1.85983
2.00142
1.03893
2.89905
3.06725
-3.47125
-3.31413
-2.93799
-2.08454
-2.33263
-2.61561
-1.342
0.571456
-1.95009
13.0409
12.1202
10.9676
23.6322
23.5296
5.00385
5.46802
19.8798
20.1169
-0.574511
-1.06681
-0.308012
20.2153
20.499
8.42332
7.75497
22.9005
17.5147
-7.87634
7.79377
3.81626
5.88414
23.3175
4.43728
-24.2065
-8.25366
-18.3965
-1.3315
22.8341
-5.65471
-11.8154
21.0431
-22.7368
-5.17765
-5.38494
5.11309
5.26285
4.09887
-0.517202
-1.05934
7.57316
-4.04797
-4.41968
-8.37878
5.76969
5.1754
-4.60657
-3.81531
-3.47051
-1.05114
0.34893
0.0551305
20.2908
4.17107
4.85807
-2.89602
24.4197
18.2207
17.9135
23.4862
-16.8056
4.44769
-14.9934
-10.8475
23.7754
0.991614
-0.269205
2.98011
21.7754
-11.5162
-11.2392
4.67222
-3.00446
-2.1222
-3.16546
-1.80112
-3.84724
3.39852
14.4626
-12.0035
3.92807
20.024
20.1421
1.71881
1.60343
-9.69322
-1.94042
21.5174
-7.43298
-8.6286
-0.994689
0.0563851
3.99244
-32.4214
-3.05326
-0.792094
2.93965
18.3107
18.3629
6.47984
-6.23281
-6.4481
-7.20758
-32.6762
0.583917
-10.2531
-9.99153
22.5991
1.29914
0.817148
22.9029
22.7232
-12.4964
-12.5718
0.755374
-11.6505
20.3642
-0.211478
-0.78997
2.66007
-6.96503
14.6829
-0.00165656
-0.240553
-9.55895
-3.56462
-2.39014
-7.7293
25.3042
16.9915
-11.2361
6.01514
5.62673
17.693
17.8885
-4.01695
-3.72384
-12.7043
-23.5773
-5.61722
-9.76296
-10.036
20.4412
-3.14843
-12.0319
24.0617
-16.9409
2.37005
-5.29732
-5.46577
3.71153
3.63143
0.205208
17.1579
4.44414
-24.0301
-12.932
-13.1801
3.14797
-10.1217
-2.42252
-0.430273
-14.0006
-14.2821
6.93704
17.0838
22.5421
-3.05472
2.25514
2.42567
17.3735
17.3261
-1.86381
8.21554
-1.2954
-1.12028
-6.07442
3.82416
0.908993
0.45161
8.34041
9.71448
20.1426
22.5943
22.8112
22.7793
-3.03973
-1.67507
-9.71907
19.0792
19.3044
14.292
1.23588
16.6148
23.1523
15.9682
15.3906
-7.30835
2.25256
-0.653328
17.0744
17.0281
-4.48808
1.50709
-11.0545
4.68568
-11.6546
5.48465
5.34626
20.9863
1.47222
-15.3841
1.21789
-10.8234
-0.573826
0.290888
17.1094
16.753
16.5851
5.02694
4.3489
2.559
-8.68062
-8.77178
17.7242
2.23719
1.84834
1.79017
0.322166
-0.0462056
3.50214
-9.10804
-9.96621
-23.3978
-3.24421
-2.66709
-2.49948
8.41379
8.20433
6.05064
6.37183
-3.51085
-3.93669
-13.7777
3.97502
-2.04248
-2.33594
-11.7396
7.21586
-20.8854
16.8585
-10.9519
-10.6891
-18.8332
4.21778
-12.4378
2.01749
2.34527
-11.6526
-10.1374
0.561763
17.5675
-15.7879
4.78041
5.16847
-11.2594
16.0108
-10.5512
24.6388
2.95995
3.43218
4.11514
2.58542
3.18971
0.795659
1.00299
1.95503
3.71789
-17.2501
-16.0526
6.5412
2.64919
1.87272
0.0795347
-1.22478
-1.55689
1.97963
-7.85603
-8.94827
5.55619
5.21128
-4.21771
-12.8217
-13.1079
2.83259
3.0714
24.391
-6.52943
-6.09471
-1.69955
22.0257
-2.01644
-1.70475
-5.49277
-5.19458
1.57286
1.8347
2.69491
18.5673
19.087
-10.766
-4.82369
2.01594
-10.6409
-10.446
-10.8409
20.3176
20.0954
-12.0949
2.54522
-18.4915
-18.8449
6.29507
5.80393
-11.8922
-11.5946
-11.8134
17.0465
17.3123
-5.20928
-11.4656
-3.03962
5.19518
-7.50467
-7.66527
18.7097
-11.3235
-7.8388
-9.53535
5.26366
23.3202
0.894883
0.269938
2.8205
2.22339
-16.0466
-11.5786
-11.0367
-9.41423
-8.62409
2.79706
2.76734
2.68737
-12.95
-12.0909
19.6139
-4.24458
-4.02774
1.96531
-7.93846
-7.67433
-3.74769
-3.23781
2.55794
17.1246
17.0542
-12.9763
-12.1056
4.10785
4.39977
4.00381
4.91115
5.5832
17.1839
6.81953
23.787
-8.5112
-8.83962
-8.41355
-8.32514
-7.00684
-8.65694
-11.2859
-11.3966
-0.809828
-0.870138
-0.993396
-0.318589
-1.67235
-5.77095
-6.15693
22.9874
20.0017
-11.7127
0.809878
0.777882
0.360829
14.3357
0.0428857
2.54501
2.87065
0.91605
1.03325
1.33546
2.32369
3.02097
17.8738
17.511
17.6079
17.9432
-2.34262
-2.90168
19.4773
3.5684
3.52635
3.78677
0.102171
2.80513
18.0553
-4.58238
-4.01122
18.976
19.3677
18.2662
1.24846
-2.27082
-2.02909
-0.0944443
2.09922
2.53182
-1.05915
3.77126
17.5752
17.6074
17.3478
-7.43938
-8.01771
-7.19909
1.22875
17.4991
4.82532
4.18396
-0.0857844
22.5013
8.06313
7.90199
8.07775
-9.80063
19.0792
-12.0919
18.1839
18.3641
24.1599
25.6476
2.96196
-4.28596
2.96322
-4.67996
-4.32314
0.255589
16.5362
0.635359
4.75103
-19.6111
0.234762
0.578189
0.79611
18.9376
2.861
2.86046
2.93852
4.02739
4.80502
23.7994
18.3422
18.541
-0.0780122
0.146067
0.556249
22.4956
22.4095
3.63998
19.3033
19.55
19.1353
18.5415
18.1712
18.3864
2.36403
19.5923
19.832
-11.8001
24.1429
3.98969
4.31037
0.348621
0.394847
5.02558
0.736378
0.130315
-0.375351
2.72467
2.60367
-9.13565
1.60661
1.90831
1.97055
0.200087
0.600962
8.57752
2.6031
6.58179
-2.21272
20.9368
22.7293
-1.04085
24.3648
-10.8516
4.55633
17.2503
-5.18052
18.6566
18.9549
15.6446
15.5711
1.84021
1.12669
-1.78761
-1.65943
-1.85385
-0.180316
0.220092
-0.0377182
7.12524
6.88667
21.2457
21.8419
24.6111
-1.13758
-6.20153
2.93795
3.1423
3.10404
3.54601
3.67068
17.2335
17.0541
1.5197
1.46941
-0.843745
0.331219
0.135918
-0.295804
18.6755
0.327055
1.74478
2.08374
2.62961
2.09762
-13.6716
-14.0854
-13.5393
24.6581
18.6299
17.9149
19.0585
19.5925
6.39207
6.6748
20.8774
2.29621
2.53017
6.43993
-9.86696
-9.75525
-8.7545
17.6302
17.6014
17.466
-9.34435
-9.54129
0.597848
-12.1496
20.4022
20.3043
14.4414
14.2801
2.9184
3.11606
2.72532
2.56159
5.15643
4.95605
15.4863
-10.2246
-10.7892
-11.4469
3.45345
3.09068
25.664
19.4403
19.3997
-4.27869
-4.56383
24.987
22.9935
23.3702
22.8923
22.9287
-3.34116
-3.7808
-15.0425
-13.3632
-16.9736
-11.4386
22.6127
-7.73777
-7.97357
-8.0386
-10.2121
-9.98453
-9.69
-8.80722
25.1133
25.2262
23.5523
23.4405
24.8412
23.035
19.5006
19.06
21.6284
-7.0711
23.744
2.25877
2.06746
2.25811
3.47059
3.46714
2.97087
1.66798
1.83517
2.19174
2.70449
5.7373
-9.66053
-9.6354
-9.04992
17.3849
16.9304
17.3329
1.44262
1.15138
0.798033
2.46366
2.63068
2.89672
8.45315
3.46124
3.75459
3.55728
-0.859295
-0.510707
-12.321
3.27118
2.70967
2.86272
25.1692
24.9782
2.81044
2.83276
3.14527
3.46611
-10.6477
1.77636
1.70409
1.03593
1.98257
2.39184
2.46896
2.28013
-2.37067
-2.17968
-2.53961
-2.53879
-9.32583
-11.5492
-11.5312
-11.3662
-11.365
18.3843
17.6151
0.659954
1.41036
4.30565
3.43604
-16.2005
8.06218
-11.2603
-12.1278
-5.97715
25.4412
-10.989
-11.8124
4.27413
4.86326
3.44936
1.04807
1.22157
23.6674
-7.28717
-7.31915
-6.45075
-8.32497
-8.61496
-8.37944
-10.1814
-10.2715
-10.2215
-4.96256
-5.31805
18.6398
18.219
0.277354
0.141414
0.812703
25.3809
20.4853
24.2886
14.5734
-11.6804
-11.8036
-10.5645
-11.4452
-13.0876
18.3868
18.092
17.878
-7.72627
-6.86862
-7.4013
-6.78181
-11.0789
-10.8397
-11.0472
-11.0794
22.5516
22.8881
22.4634
22.4412
-8.69372
-7.80462
-8.41021
-7.861
15.0799
-5.65335
2.80603
2.68294
2.40694
2.76461
-1.97848
-1.59729
-1.81349
-11.242
-10.44
-9.82927
-10.4886
0.621487
0.876391
1.25351
2.5424
2.64406
2.40308
2.52908
2.19252
18.265
18.6803
18.1249
17.7339
2.82588
2.67485
2.65753
2.73317
-9.23196
-9.52223
-9.70182
-4.36201
-5.11058
3.44664
3.81714
3.24827
-13.0115
-13.6466
-1.10324
-0.950624
1.55368
2.05013
1.05751
1.60731
0.858763
0.269538
0.811619
-5.92009
-6.26361
-6.74579
-7.13237
-6.5922
-6.63903
16.5765
16.8649
-1.01266
18.4868
18.5333
20.4657
1.11619
1.44566
1.80868
1.52106
18.8842
-3.17312
-2.35878
-2.17744
-1.58655
2.73016
2.38849
17.2561
17.4828
16.9699
17.211
-3.6594
-3.28975
-4.09242
-6.87858
-7.32635
-7.40045
18.4344
18.221
19.1205
18.9578
-8.32291
5.12475
16.5201
-7.52119
-7.81361
-6.61162
-7.55731
-21.8623
5.98889
-21.478
-21.1151
4.28305
4.58656
3.79889
4.02965
-2.07673
18.3458
18.6425
3.5745
3.45145
3.86344
-0.0393867
-0.357837
-11.6315
-11.6986
-11.5661
-8.7579
-8.50799
-8.75641
-8.36874
19.9856
6.16123
6.02292
-5.40628
-5.63725
17.6527
17.7824
17.5823
20.669
-4.9758
4.69486
-0.470979
-0.750986
-0.562357
1.12284
-9.48409
-9.97001
-9.0229
1.90435
2.06845
1.69731
19.1367
19.2721
2.93503
2.55019
-7.68463
-7.39168
-8.2077
5.25007
4.96452
5.79517
-6.71605
-6.93483
-6.61588
-7.03743
-7.24632
17.9317
17.4128
17.7118
-3.94042
16.329
16.0216
-1.88353
-2.02746
-0.918523
2.16269
1.53359
-12.3257
-12.2266
4.47173
4.1529
19.8282
19.3565
4.32557
4.08553
3.50523
3.05448
1.84391
1.87153
1.29035
1.35882
1.83603
1.83651
17.846
17.6325
0.324938
-0.131137
-0.247868
0.0840316
-0.751719
19.2214
19.0266
18.8275
22.6274
22.7413
22.3792
22.7462
18.2822
18.8215
18.8511
18.6542
0.225188
-0.25895
19.4764
19.6028
3.16999
3.23075
3.63031
3.89596
3.7471
-12.097
-11.9674
-11.9591
-11.8012
21.0585
3.1441
2.94168
20.2904
20.157
19.8459
20.242
-0.359885
-0.318834
-0.785244
-5.74701
-5.94591
-5.55428
1.94252
2.42158
1.44236
18.5376
18.6242
18.9321
19.0055
-4.06177
-3.73745
-3.41016
15.29
-13.2242
-12.8646
-12.376
0.519413
-7.69855
-8.60007
-8.11618
-8.23639
-0.104025
-0.342525
0.492767
0.0364801
2.99962
-10.5064
-10.5082
-9.78218
-10.2372
2.6447
2.83886
2.57088
2.40045
2.19036
2.18025
2.50229
2.19999
1.86208
23.2524
18.6074
18.7684
-12.2961
-12.3733
24.6913
-6.0387
0.687551
0.201479
-0.723892
-0.387886
-1.51224
-2.02416
-1.35837
-11.5149
-10.9512
-25.8066
-24.9701
16.4932
16.817
17.0266
17.1736
4.92802
3.17152
2.88549
3.2832
-24.1035
17.2282
17.3486
16.6648
16.7767
-8.79075
-8.46791
-8.20036
-7.53799
1.26211
1.31729
1.21105
4.9638
-8.92334
-8.67438
-9.0127
-9.0466
-13.9363
-13.3572
-12.5554
4.39439
4.29889
5.36617
19.0224
18.6488
18.5772
18.534
9.61091
9.55661
-2.78965
-1.86847
-1.40965
-1.37391
19.5291
19.4881
19.2817
-8.29818
-15.5216
-16.9232
19.9504
19.8074
5.07098
5.02885
5.25584
2.80913
2.78359
2.99594
-12.0157
-12.2052
-11.9892
16.7249
16.368
16.6906
17.2051
22.581
18.3971
18.7652
18.246
18.4164
-5.27888
-10.5282
-5.09899
-5.38723
-1.35943
-1.20896
-0.295691
-0.507706
3.28394
2.83112
2.69767
2.65356
3.16616
-0.806698
0.261127
-0.481029
20.6299
3.8615
3.70654
3.80166
-1.4933
-0.763246
-8.99453
-9.07146
-9.04189
-10.7324
-10.0522
-10.6424
5.95571
23.1619
4.75153
21.8231
21.9087
2.5641
2.06248
2.65569
-5.54095
-5.53989
-5.81498
0.723864
-11.0709
-11.4045
-11.2002
19.7677
20.0729
1.88251
1.54114
1.33254
1.62853
4.81862
4.85512
21.8239
21.8836
1.87628
1.55088
2.15293
1.97394
2.54504
2.83945
19.5746
4.89511
5.08318
4.83414
-1.00172
-0.512319
-0.948675
-19.7034
-7.59642
-8.22491
-8.3666
-7.87014
19.6114
19.1186
18.7909
19.1562
-5.48417
-6.42643
-5.86798
-11.7947
-12.9838
-16.5321
-13.2615
-17.321
0.448398
0.287825
-0.834477
-0.590748
-6.42232
-6.9695
-6.47019
-5.69981
4.22176
3.99484
3.07369
3.42225
20.6729
16.1551
15.8595
16.2299
-6.53079
-6.17916
-6.43427
-6.65058
-13.8268
-12.4012
-10.0107
-9.87084
-9.14483
-5.22063
-4.85134
-5.04607
-4.09071
16.3595
16.6263
0.444038
0.389301
-9.19172
-9.60917
-9.77021
-9.78895
1.09694
-6.03743
-5.67076
-5.98452
-5.78082
2.47211
2.67747
2.59796
22.8859
17.8497
-11.208
-10.685
-10.8011
-10.1409
1.72768
1.96886
-10.3347
-10.3051
3.85029
19.1432
2.35908
2.06907
0.960097
-5.29531
5.4546
5.21164
5.30986
-6.52096
-6.18304
19.9851
-10.3865
-11.5742
-10.8922
-13.918
0.282688
0.690695
0.383638
21.6213
21.5721
25.7526
-4.62298
19.6438
2.67809
2.78971
2.29174
2.5838
-0.341315
0.115687
0.974251
0.593694
2.7395
2.73724
2.8148
2.80637
-10.1773
-9.58022
-9.08133
-9.90709
2.21369
2.13754
3.26599
2.28532
-7.08143
-6.58434
-7.63498
-13.0776
23.3247
-7.57123
-11.2397
-10.7457
0.967786
0.935064
20.5346
-14.8395
2.81999
3.28756
2.9761
20.5287
0.13318
-0.251829
0.271896
0.899989
3.6668
1.1065
0.670069
1.734
1.96384
21.7804
21.9147
21.2194
21.5158
2.34215
2.45088
2.61286
2.05888
-0.0964522
-0.431115
-0.761428
-0.327144
4.12892
4.3785
4.47635
4.10713
19.8971
19.7677
18.9231
19.2211
19.2392
19.2851
-8.49274
-7.63691
-8.81815
-9.22085
0.410683
0.243718
-0.0473334
6.65555
-11.6956
-11.6962
-11.5295
-11.6511
-11.4199
-10.203
-11.8171
-12.4886
-12.995
-13.3346
-15.2942
2.20333
1.72598
25.765
19.1749
18.8659
18.583
18.3529
-14.6311
-13.5657
-13.2896
0.446689
-5.09569
-5.47687
-4.9533
-11.1319
-11.1848
2.23765
-10.5771
-10.7258
-3.13484
-3.70159
-4.00799
-9.41676
-8.35036
-8.19013
-9.09444
-11.921
-12.0684
-11.849
8.02502
6.98657
-8.59168
-7.73466
-8.23462
25.7778
-8.38797
-7.97136
1.47285
1.60225
0.395559
1.49253
1.33336
1.5669
-13.0691
-11.8281
21.118
21.3279
0.894124
1.39618
18.6566
18.8103
18.8977
19.153
-5.27439
-10.5561
-10.61
5.07397
5.20432
4.54663
5.09978
0.996099
0.981994
1.39575
1.12127
0.758659
0.849566
1.29491
1.06597
-0.367853
-0.281018
-0.416876
-12.1748
-11.9155
-11.1715
-11.7491
-9.99857
-10.2202
12.8801
-7.96721
-7.94897
-7.99619
6.46436
19.5971
19.769
19.7282
-0.740942
-0.86228
0.408711
0.574347
0.543107
0.997162
-9.80497
-9.26801
2.03614
2.26452
1.66451
2.0298
1.75178
2.16492
2.22067
2.50957
18.843
18.7862
19.3337
19.287
-12.209
-12.2662
-12.1283
20.1327
19.8632
19.4478
19.7429
5.10445
5.21807
4.86237
18.7328
2.4345
1.96545
1.99711
1.92459
-16.7791
-14.8577
-18.5029
24.7909
-3.67096
24.9924
25.1808
25.2461
23.2
-13.4976
23.5132
23.9539
24.0074
23.5587
25.8064
21.7642
25.5692
25.5991
24.7917
24.8331
-11.2314
22.5437
22.4941
0.53452
24.1013
-6.26722
22.2068
23.3798
23.388
-6.6718
24.1671
1.14991
24.5961
23.8874
23.8295
21.5217
-1.35585
0.0169887
21.7415
21.6253
-15.0352
24.9722
1.03888
2.12281
-1.42444
5.79264
6.75652
-6.76732
25.4782
23.1804
25.7163
25.6647
25.6172
-14.7925
-15.3149
25.2459
-15.252
24.228
24.1229
22.7665
24.4693
-4.11401
-15.0443
0.493992
0.615861
25.8242
-17.6873
-18.1722
22.2805
-25.1053
21.8331
21.8953
21.8718
2.49292
2.32541
25.2336
-1.12445
1.3895
1.59742
-17.7802
23.2717
23.268
25.4189
4.38922
23.9887
22.8603
25.4928
22.541
22.9748
2.76018
24.0933
19.2524
19.2889
0.648795
6.66268
23.0314
17.6554
23.1214
25.0338
2.25748
21.3215
25.2433
23.1918
23.24
25.1079
24.3474
24.2852
23.6627
24.048
23.9722
22.0637
21.9448
23.2282
20.3052
23.8873
20.7771
0.867364
24.3225
11.3096
21.8555
-1.33572
24.4819
23.5411
23.6996
23.7605
6.06159
21.8962
21.7766
-25.4176
25.5998
25.6152
24.1327
-0.631804
-0.64539
-20.1716
23.8095
-26.7468
-25.8247
24.5193
18.5332
18.7221
-1.44767
19.8467
0.212531
0.151112
18.2141
23.0329
23.2078
-0.869972
-1.48845
23.311
22.3204
4.06312
21.7278
24.9062
23.0684
20.4511
23.0707
21.8764
-9.90599
-10.0695
-9.72031
25.298
23.6373
-11.9284
-11.9201
4.39725
4.31804
-13.93
-11.4005
-10.9357
0.381758
24.714
24.3733
-5.80843
1.39855
23.6858
23.586
23.8102
25.0761
25.0011
23.5287
23.3958
23.9599
25.1079
23.3705
23.2316
24.3857
24.3109
23.6697
23.6623
5.17595
23.118
22.9171
23.362
25.0193
24.6447
21.7975
25.4956
20.5787
20.7748
23.3387
23.2651
23.7523
24.4072
22.4395
22.3293
1.86819
22.8312
0.195786
0.0660254
0.0761967
-12.2296
-2.36236
24.1082
-17.2388
24.0166
2.3199
20.8001
25.37
22.7354
22.5775
22.6456
24.7173
23.8549
1.0535
11.6876
10.6959
22.9381
23.0668
-0.879575
1.19353
-3.70853
-3.46788
23.5695
22.8826
0.350298
20.3717
20.811
24.8507
23.228
-20.8578
7.8742
7.23615
23.412
-4.40141
22.6309
22.4077
22.4468
25.4086
-6.63543
-7.75631
-7.61254
16.1321
23.3271
-0.773118
-1.07451
3.69818
0.015094
-19.2843
20.4464
21.0888
1.14069
0.773495
0.611548
21.6098
1.79172
25.5802
25.5257
24.8556
22.9488
-22.0301
22.8269
22.8612
22.928
23.001
22.8757
24.4625
24.5293
-2.30178
-6.06524
21.6406
8.65399
3.36351
3.37517
20.6373
-0.271633
-0.419302
-3.29236
-3.72136
25.2497
-24.7997
-0.840141
-1.23951
23.3983
23.5208
21.5641
21.4398
0.562237
0.349446
-0.679168
-1.00356
22.6933
-7.859
-7.58475
0.928389
23.106
23.0598
8.38715
23.6974
23.2642
23.0173
24.3688
21.3741
23.6274
-2.22356
22.1154
21.9009
-17.0664
4.84362
21.3593
-17.2041
7.78773
8.44529
7.67901
-17.0239
1.59021
5.57993
-4.7963
21.0658
25.198
23.1474
23.6185
23.5027
-2.06135
23.1393
23.1722
21.6067
-5.04637
-7.56111
-6.16353
21.6792
20.4976
20.374
-0.00374851
0.26947
-12.7613
21.6419
21.5698
21.9471
21.3713
-1.04404
-1.51642
3.4964
3.17806
-1.54443
-1.49233
1.01331
25.0464
25.1055
2.35757
24.2934
-6.59031
-1.10174
-0.963302
-0.679946
-10.8732
-10.3558
-10.558
0.10545
-4.17656
-4.75626
2.06915
1.25279
1.38551
0.509525
3.48383
-3.79055
-3.71226
24.3282
24.2982
1.0051
22.1527
-10.1347
-10.3947
-9.14371
-2.33116
23.1941
18.6612
23.0322
10.7764
24.8595
21.6224
21.553
1.16977
1.1433
1.32631
21.881
21.8733
24.7249
0.61868
22.8313
10.9745
20.5771
20.5481
20.0669
0.457744
-1.15865
-8.60975
-8.83368
-4.62179
-5.16452
24.3554
24.2918
1.45254
22.5916
23.726
24.61
-0.068663
-0.483079
0.796922
-5.35683
0.70448
1.73944
1.61264
24.3706
21.6943
2.72766
2.62245
2.09022
2.47023
-4.50211
-3.34396
3.52683
3.55117
8.04487
8.83626
25.4764
0.992883
0.665417
-1.90623
0.269665
0.330033
0.334197
-0.887734
-0.513351
0.737838
0.651059
0.418673
-1.0129
21.4918
21.3942
20.6251
-6.98647
-6.66511
-7.38857
-1.10903
-1.23911
-6.33502
-9.28988
-9.55939
-2.11333
-1.67614
-3.69467
-3.85954
20.6195
19.6511
25.1007
24.4423
3.97137
-6.05929
-6.23776
-6.18741
-0.256306
24.5053
24.4203
-2.62275
-2.14623
22.852
24.2761
23.4127
23.3352
25.0156
19.9399
20.1547
20.0358
1.29811
1.16621
22.7054
24.7051
24.6614
24.9222
24.895
7.47754
8.74148
-8.40471
-7.46038
-11.0688
1.62277
-8.50301
-7.99159
-4.36817
-4.72395
-5.04768
-5.95006
-5.93895
-7.24571
-7.67965
22.5907
22.5087
0.629143
0.714321
-0.77919
-6.09826
21.33
24.6237
21.247
24.6269
23.2239
23.348
23.2928
25.0824
-6.45618
-2.7051
-2.99165
-3.32426
-3.26288
-2.62985
-2.47893
-11.9158
-12.3075
20.9229
7.56468
22.999
22.8197
8.10565
22.0554
-11.6552
0.0479091
23.9823
23.7826
-0.726592
-0.737843
21.264
-6.69802
-6.61853
25.0508
-10.0095
-9.30893
-4.64031
19.2897
19.281
-2.09897
22.613
24.902
19.378
19.4098
20.0417
19.9473
19.7083
0.95599
1.04503
0.920985
-6.50796
-1.21102
-1.02695
1.70889
1.28268
2.73867
2.59468
2.70993
20.6548
20.4204
20.5086
-3.5959
-0.601944
24.3708
0.967119
0.972698
1.00955
1.80165
-10.3454
18.5786
19.2119
18.8746
19.5373
-3.63787
18.7692
18.6776
21.3683
20.9773
19.2916
5.445
15.5989
15.0966
14.6173
23.4366
23.3298
-3.17364
-3.44399
-1.52557
-1.00743
2.96999
-5.49217
2.31706
23.1969
25.2609
25.2036
1.98285
22.5927
-0.112404
-15.3533
20.1608
19.9857
19.9502
19.9675
20.1228
5.15914
-5.91393
-5.74588
-5.79796
-0.385994
23.2099
24.7839
24.4557
0.0447998
0.787656
3.12013
3.39429
18.8644
-0.326593
-0.839081
24.0712
24.0724
22.4418
22.5378
22.3095
-0.739703
23.938
23.9222
0.959071
0.211806
18.5366
22.3435
22.2927
21.056
1.03144
2.65498
2.28976
20.6888
3.01225
19.0983
23.7911
20.052
20.1299
22.3394
-0.72768
23.63
-3.53032
25.1356
20.8943
20.9092
25.3814
25.4169
25.4293
25.075
23.5462
1.91471
22.8652
23.002
-9.56229
20.4787
1.77563
0.99995
1.19956
1.10407
1.24689
-1.26083
2.39671
2.30631
-0.279599
-0.66663
-0.920272
21.1726
21.1387
-1.89513
-2.13576
-6.25006
-6.45057
-6.503
-1.93196
-1.81303
1.61523
1.67349
-4.12313
9.58602
10.527
18.4136
18.2593
2.0063
2.21397
-5.65041
0.913662
0.356697
0.873147
0.848965
22.0617
5.37249
17.8142
17.3559
-3.64489
21.0596
-17.2234
24.9957
0.487166
0.106403
2.39689
2.60902
-4.92032
-4.99312
-4.74194
24.5027
15.2071
15.9385
16.5189
1.88059
1.65341
1.48569
23.074
19.7384
19.3905
19.2881
19.2309
3.11553
2.76374
2.74136
-7.58236
20.1293
20.1086
20.1891
18.8873
18.8296
25.383
1.66023
1.92034
1.6426
-8.03163
-7.91681
-9.28872
-8.47768
2.84671
3.00909
19.6753
19.3214
3.17794
3.24568
20.193
19.9017
19.9015
-3.47892
-3.11312
1.02055
0.916754
20.4315
20.5452
0.281716
-9.24497
-9.67285
1.99663
1.79638
2.16671
-8.27586
-8.62319
0.821065
0.772393
19.5897
19.8986
19.569
-7.75413
-7.80174
0.650148
0.896066
0.570728
-3.91929
-3.593
-10.961
-11.2276
23.1141
1.73815
1.60482
-12.2645
4.72214
5.05701
21.8672
20.9167
20.461
19.7251
19.8597
23.0937
1.58372
0.37689
0.0822092
0.703658
0.880297
22.5103
3.62116
-0.0785775
-17.5825
13.1955
13.5802
-7.52601
-7.23914
24.6882
-1.50667
5.98122
5.97415
4.14048
-10.6229
18.0614
17.5907
-9.47956
20.3038
19.9581
21.959
19.4868
19.7312
-1.66666
-5.66373
-5.76468
3.48597
18.6753
18.8045
18.7998
19.4716
19.9789
20.1303
21.6721
21.7715
-3.77508
22.0334
21.9254
18.7535
19.4869
19.4011
24.8608
24.917
2.14796
2.0986
1.99012
0.916104
0.276556
21.1619
21.6292
21.3195
25.3728
-11.5464
2.54835
2.5722
3.10182
3.226
21.9931
4.11476
3.5381
3.6648
-5.6116
-3.36659
-2.23903
-5.90168
-6.01786
-0.0632008
0.0260621
-4.72317
-4.1234
-10.4828
-10.0417
-10.3441
0.975186
18.0511
18.4699
-0.450188
-0.570345
-0.0919387
19.9861
19.8086
19.7059
-1.20978
-1.11384
-1.35568
-10.2929
-22.1946
4.87685
5.02302
-10.5844
-10.2859
1.40441
1.76085
19.6666
-9.78
-9.79569
3.02236
2.92692
0.379337
0.421876
6.18007
6.76308
7.75244
20.7156
20.7179
-14.0271
19.7185
19.7474
1.65273
0.928851
1.35058
1.4856
0.911418
-4.68472
-2.86479
-3.75947
7.40865
8.19681
9.58895
9.07219
20.8887
21.1544
-1.38097
-1.49244
1.5282
1.74128
23.0698
25.3255
19.4728
19.3762
21.8084
-5.24495
-4.78004
-4.86641
-0.505699
24.5712
16.9632
17.0986
3.16601
3.01358
21.0585
21.0642
-9.85185
-9.91897
1.8421
1.2172
0.958896
21.0326
21.1367
4.18257
4.59072
20.2257
20.2975
22.6961
22.5394
-20.636
0.0995832
2.82469
2.71784
-3.07319
-5.12646
24.0551
-15.6725
-3.3325
-9.58291
-9.89217
-3.05242
-2.34066
-5.20984
-5.12234
-0.509913
-0.433915
-0.880859
2.69484
2.92419
0.446216
0.941332
0.750715
24.4672
23.831
25.4396
22.1069
22.1946
21.671
22.1304
1.26823
1.76956
1.31179
-4.4581
-4.4433
2.87668
1.02152
0.88249
0.969235
-3.64598
-3.58358
14.0681
21.7833
9.02418
19.0389
18.7303
-13.3942
8.67936
-0.755601
9.61796
-24.7941
12.6766
-12.5765
-14.6068
-12.3333
5.3814
5.84176
8.83716
6.8012
-12.2438
-9.65687
-9.15937
8.41699
9.50924
9.72655
12.9823
14.8423
-5.38415
-7.49447
7.92887
5.01552
8.97145
3.51355
-12.6244
-12.7288
11.767
12.8402
4.04314
-17.9721
-21.9153
-9.21884
13.2678
-8.0338
3.95016
11.7804
11.9655
7.12136
7.16352
-7.16624
-7.62441
-9.02827
-13.2837
-12.852
1.40454
-1.08988
13.3771
13.602
3.54741
2.99678
15.0215
-10.246
13.6191
12.1227
0.73852
-2.49835
12.9265
6.75179
11.7284
2.76524
15.0795
20.2097
6.1308
10.2302
7.919
3.07499
10.3273
4.50158
4.81395
7.83486
7.7294
-14.9309
-15.0364
2.37501
-4.25332
-20.6791
6.0547
-5.2896
-8.44442
15.3016
0.215609
12.9004
-0.267272
-1.25326
-11.6305
-14.3109
-8.86177
-10.1094
0.758045
-12.5939
-12.5149
5.99626
-1.62272
-2.32747
-1.13428
0.0796398
1.26449
17.192
-9.05476
-2.58304
-1.68277
-17.4422
22.6197
-4.31043
-28.4941
-22.8189
-25.7676
3.47921
-13.3836
-14.8486
12.254
11.0681
-8.61615
10.8579
-9.2389
-9.76355
0.903509
0.844865
0.61331
0.395814
-11.3448
1.07858
4.38323
-4.25187
11.7807
-0.220255
-1.31159
-15.5691
17.2959
8.18358
10.9912
7.7429
7.56041
-21.2978
-12.5231
10.9703
-18.1441
-5.93956
14.8024
15.0853
12.2653
13.4463
-14.6501
5.06114
2.33265
1.42891
11.2837
11.0148
9.10688
8.53505
9.27055
5.33893
12.5336
6.82709
-4.68597
-1.46599
-0.121967
-1.36104
-20.3329
16.8096
-3.77028
4.30294
4.57334
-11.8468
-12.3163
23.2262
-18.0028
-19.4391
18.4956
13.5169
-4.99178
2.68102
-4.93813
-5.61229
5.49445
13.0113
1.06874
-12.3142
2.42834
1.27019
2.99598
3.7971
17.0205
16.9848
-15.343
1.18696
-5.49277
-5.24567
2.49106
-6.62415
-10.767
12.5216
0.135607
1.00726
14.7438
14.6453
8.05715
8.5527
3.19094
3.64518
-0.309747
-0.810672
-1.24334
17.0262
-4.37202
17.994
17.8075
18.304
-8.76485
-9.24486
-10.3575
6.51741
-7.06932
14.5583
-6.82665
-5.8307
-7.13543
5.80211
-26.3959
-7.15989
10.7323
11.6898
11.3168
14.589
13.736
13.4823
10.6579
10.6292
-13.1751
7.33299
12.6739
11.9876
-6.73513
-26.4061
11.4297
-25.2451
-20.1865
3.52907
4.31576
5.88339
6.44376
-17.8193
2.56962
3.90739
4.72307
12.9766
11.9401
1.75924
-1.87738
-2.43078
-0.415242
0.1983
-16.3187
-15.1308
2.45466
1.47367
13.628
12.1969
11.8094
4.91305
5.64485
10.1304
9.07289
6.96701
9.85865
9.4352
8.61416
8.861
9.06906
11.1837
3.29813
3.08305
3.00496
-4.23448
15.2074
8.44834
8.96767
13.0971
-5.47487
17.395
0.374882
0.543461
-12.3757
-2.49018
-1.77704
-2.52153
-11.0442
-10.7633
0.512537
3.77516
3.01154
-2.70046
-1.60816
18.037
9.66877
2.86362
3.75114
-4.11509
-13.8948
8.11214
15.5653
15.653
10.0946
9.75766
-0.377329
-0.765476
-1.37937
-0.727363
-0.137278
5.31843
14.0405
13.0146
4.9258
17.4764
17.8207
17.8696
14.1514
14.4011
6.4137
13.5165
5.04774
5.55476
-2.68247
-1.66547
12.5875
11.6106
2.7448
3.53392
9.88757
10.7736
-7.08044
1.63652
1.77055
1.73754
5.97925
-12.2962
-9.80751
5.44643
6.09242
-1.86269
-1.45674
-2.54175
6.99316
13.5156
13.3232
22.4822