/*--------------------------------*- C++ -*----------------------------------*\
  =========                 |
  \\      /  F ield         | OpenFOAM: The Open Source CFD Toolbox
   \\    /   O peration     | Website:  https://openfoam.org
    \\  /    A nd           | Version:  6
     \\/     M anipulation  |
\*---------------------------------------------------------------------------*/
FoamFile
{
    version     2.0;
    format      ascii;
    class       surfaceScalarField;
    location    "1000";
    object      phi;
}
// * * * * * * * * * * * * * * * * * * * * * * * * * * * * * * * * * * * * * //

dimensions      [0 3 -1 0 0 0 0];

internalField   nonuniform List<scalar> 
44611
(
1.52412
-2.14736
0.623245
1.52412
1.44608
-1.44608
1.93941
-0.49333
-1.31921
-0.707801
2.02702
-1.31921
-0.0925235
-2.17534
2.09044
-0.566328
1.29723
-1.29722
0.180625
1.85449
-2.17628
0.730196
2.37679
-0.340665
0.413083
-1.7323
-0.797042
-1.20088
0.797042
1.2934
-0.553607
-1.33887
0.553607
0.743619
-0.595249
-0.824372
0.824372
-1.17128
1.35191
-0.0104683
1.28964
-1.27918
-0.137672
-1.86357
2.00124
1.52543
-0.215472
-1.30996
1.21979
-1.21979
-1.10275
1.10275
-1.51203
1.51203
-1.19511
1.19511
1.50549
0.0199391
-1.92099
0.40896
-0.920244
-0.786365
1.70661
-1.62804
-1.26922
1.26922
0.124348
-1.42515
1.3008
-1.49484
1.49484
-1.28177
-0.220633
1.5024
-1.37356
1.37356
1.65568
-0.143641
-0.460566
1.51119
-1.05063
1.72127
-0.50148
1.32926
-0.214791
-1.11447
-0.701744
1.09924
-0.397501
1.18894
-1.4624
0.273463
-0.881222
0.881222
-1.14579
1.03977
0.106021
0.954413
-0.954413
1.19295
-1.33062
-2.28503
0.81358
-0.81358
1.01684
-1.23231
1.83042
-2.04589
-1.61005
-0.622943
-0.820495
-0.789559
-0.899096
0.899097
-1.04032
1.02985
1.92894
0.0928317
-1.46639
0.104337
-0.299728
1.21496
1.16183
1.7323
0.166468
0.533195
-1.21819
2.03869
-1.46639
-0.983662
-0.478736
1.30136
-1.30136
0.905273
-0.419151
-0.486122
1.33079
-1.14538
-0.185414
-0.801122
-0.643449
1.44457
0.000752177
-0.0796123
0.0788601
1.67774
-0.388091
-1.69837
-0.165202
-0.357404
0.909649
-0.552245
-0.0382798
0.0450984
-0.00681864
-0.137088
-0.612317
0.749405
-1.16215
0.460411
0.0113067
0.0602336
-0.0715403
-0.0325809
0.00732892
0.025252
0.856214
0.213687
-1.0699
-0.00189175
0.00189174
1.47502
0.524508
0.24059
1.23443
0.798694
0.879041
-0.0230997
-0.00948119
1.23259
-0.504356
-0.728232
0.918199
0.314389
-1.07286
-0.625509
-0.265114
-0.807745
-0.982913
-0.477285
-0.910444
1.38773
0.0042889
-0.0425687
-0.00847639
0.0340872
-0.0256108
-0.728893
0.853242
-0.65072
-0.2868
0.93752
-1.17562
0.95499
0.000382577
-0.000382588
0.0918841
0.817765
0.997158
0.652564
0.863607
0.467187
1.15939
-0.295786
-0.0783448
0.63953
-0.561185
-0.363907
-0.48061
0.844517
0.412001
-0.746089
0.334088
1.14033
0.859669
-0.748782
0.758483
-0.00970153
-0.794398
1.06786
-0.889717
0.198548
0.691168
-0.886728
-1.1184
-0.845014
-1.44002
1.11013
0.337267
-1.4474
0.928184
-0.07197
-0.19929
0.746979
-0.547688
-0.958201
-1.08769
-1.43549
-0.850219
-1.11479
-1.61228
0.762065
-0.868141
1.2771
-0.346792
0.808188
-0.461396
-0.982471
0.174725
-0.419026
-0.53784
0.956867
-1.31093
0.891908
-0.265312
0.831269
-0.565957
-0.833932
-0.0765118
0.754757
-0.617447
0.831134
-0.893747
0.594019
0.0491445
-0.0378378
0.0364206
-0.044897
0.596896
-0.811687
0.850499
-0.684031
-1.49572
0.683018
-0.794036
0.111018
0.812701
-0.708364
0.901747
-0.0900473
-0.811699
-1.40098
0.000943721
-0.000943725
0.000943719
1.07084
-1.07084
1.07188
-1.07188
-1.15445
1.36176
-0.207308
0.625012
-1.0783
0.453284
-0.295267
1.36714
-0.899333
0.581724
0.317609
-0.92966
0.0303278
0.829699
-0.624807
-0.204892
0.0285775
0.336781
-1.13118
-1.25452
1.25452
-0.440133
1.35833
-0.107763
-0.464558
0.00594127
0.458617
-0.152652
-0.311907
-0.643145
0.490493
0.37235
1.02491
1.40242
0.616052
-0.0206975
0.975687
-0.0787467
0.931989
-1.25156
0.359303
-0.839912
-0.283842
-0.93425
0.333819
0.600431
-1.11961
0.185365
0.0894925
-0.800224
-0.963909
-0.315267
-1.45724
-0.727043
-0.233384
1.72822
1.06742
-1.20225
1.30827
-0.0641257
-0.681964
-1.05349
1.69837
-0.644881
0.086088
-1.41328
1.35636
1.97961
-0.86187
0.86187
-1.6456
0.783728
-0.00536096
-0.00235271
0.00771367
-0.0254528
0.0299543
-0.00450145
-0.00637866
0.0039936
0.00238507
0.0471905
-0.0568557
0.00966517
-0.00394406
-0.004202
0.00814606
0.00412795
-0.00807201
-0.0558611
0.0106028
0.0452583
-0.593991
0.294462
0.299528
-0.0633432
0.0490029
0.0143403
0.0148296
-0.0643372
0.0495077
-0.00417264
0.00830059
-0.00491507
-0.000584312
0.00549938
0.0182166
-0.000740932
-0.0174756
-0.00157313
-0.00883279
0.0104059
0.0057614
0.00474716
-0.0105086
-0.00245813
-0.00558246
0.00804058
0.00499571
-0.00437482
-0.000620905
0.00788148
-0.0022388
-0.00564269
0.0121745
0.0125627
-0.0247372
0.0366356
-0.0244612
0.000927614
-0.00593893
0.00501132
0.00545453
-0.00452691
0.63484
-0.436291
0.0855117
-0.0443346
-0.0411773
-0.0171814
-0.0196968
0.0368783
0.0262658
-0.045468
0.0192022
-0.00345143
0.00345133
-0.00622248
0.00165851
0.00456397
0.0312244
-0.0116978
-0.0195266
-0.0467351
0.0094048
0.0373303
-0.0854581
0.0151286
0.0703295
0.00349805
-0.00832843
0.00483037
-0.00780845
0.00537107
0.00243738
0.103184
-0.0335376
-0.0696473
-0.00440884
0.0622766
-0.0578681
0.0433601
-0.042458
-0.000902097
0.00163548
-0.0199113
0.0182758
-0.0583979
0.0156051
0.0427929
-0.0382423
0.0537422
-0.0154999
0.00326974
-0.00757622
0.00430648
-0.00587322
-0.00219879
-0.00594375
-0.00714183
0.0130856
-0.0101457
-0.0408927
0.0364838
0.0305389
-0.0714317
-0.0038431
0.00952254
-0.00567944
0.0320418
0.00829669
-0.0403385
0.0183971
-0.00509172
-0.0133054
0.00300136
-0.00300138
0.0092212
-0.0281985
0.0189773
-0.00689237
0.00431933
0.00257305
0.0609147
-0.0602143
-0.00070066
0.0305022
0.0321467
-0.0626489
0.0564378
-0.0259356
-0.00455143
-0.00234094
-0.0199887
0.0210011
-0.00101244
-0.00794256
-0.0120461
0.00374482
-0.0108867
-0.00631812
0.00763393
-0.00131582
0.00446038
-0.0065434
0.00208304
-0.0244098
0.0392394
0.0206886
0.0108536
0.00736299
0.0181825
-0.0232649
0.0284614
-0.00519648
0.229301
-0.192337
-0.0369644
-0.00640553
0.00262876
0.00377677
-0.630867
0.344067
-0.0217846
0.013842
0.0868017
0.46369
-0.550491
0.0548337
-0.0714889
0.0166552
-0.00356423
0.00539901
0.0123364
-0.0177355
0.00127621
-0.00127621
-0.0560654
0.473391
-0.417326
0.0133898
-0.00212945
-0.0112604
0.00824489
-0.00403991
-0.00420497
0.00509958
0.00278191
0.00803176
-0.0261405
0.0181088
0.017921
-0.0208801
0.00295914
0.00972423
0.00819681
-0.0262698
0.0529919
-0.0267221
0.00462884
0.00361605
-0.00242684
-0.00397869
-0.0123866
-0.0159913
0.0283779
0.00183027
0.00838823
-0.0102185
-0.00363005
0.00571638
-0.00208634
-0.00684255
0.00321249
0.0060792
-0.000362818
0.000541499
0.0151684
-0.0157099
-0.00934347
-0.02932
0.0386635
-0.0096235
-0.035923
0.0455465
-0.430534
0.356346
0.0741876
-0.0337126
-0.00452971
0.0181075
0.0307995
-0.0489071
0.0164263
-0.00334071
-0.020357
0.0198176
0.000539426
-0.0172368
-0.0031202
0.0258497
-0.0161255
-0.04812
0.0279945
0.0201255
-0.00130899
0.00640515
-0.00509616
-0.00324987
0.0552729
-0.0520232
0.0576647
0.0500833
0.00518944
-0.00161635
0.0244373
-0.0228209
0.0163433
-0.0158018
0.0147269
-0.00594891
0.0213881
-0.0154391
0.00534245
-0.019481
0.0141385
-0.00933781
-0.00893558
0.0182734
0.00990058
0.0065257
0.000562769
-0.00240987
-0.0271601
0.0187208
0.00843931
-0.0225235
0.0251869
-0.00266331
-0.0496837
0.0439077
0.000134651
-0.00635713
-0.00358548
0.00534139
-0.00175591
-0.0265722
-0.567418
0.0564739
0.0352729
-0.0917472
-0.0134715
0.00690303
0.00656845
0.0106187
-0.00712356
-0.00349515
-0.047833
-0.0260782
0.0739108
0.320611
-0.52835
0.207739
-0.00502803
-0.00511772
-0.0888629
0.223387
-0.134524
-0.921259
0.308942
-0.00555609
0.00637866
-0.000822571
-0.00783374
0.00709281
0.0341049
-1.7654e-05
0.0257809
0.00832399
0.0244197
0.0072241
0.013777
0.0125666
0.00416322
0.00961377
0.000769874
-0.0238696
-0.0167058
0.00672943
-0.0160297
0.00930028
-0.0156035
-0.00110224
-0.00887408
-0.0249346
4.03254e-05
0.0248943
-0.0393393
0.0137284
-0.245944
-0.184589
-0.0255066
-0.0378365
0.0229888
0.0307534
0.0314281
-0.390222
0.493646
-0.103425
-0.511157
0.501455
0.00163159
-0.00163159
-0.00602054
0.00255381
0.00346673
-0.0756325
0.0277995
-0.00247445
0.0458346
-0.43447
-0.486789
0.164854
-0.599323
-0.553969
0.0671793
0.00284841
0.0291934
0.0261679
-0.026696
0.000528019
0.041155
-0.0456299
0.00447494
-0.00716845
-0.0137117
-0.0131174
-0.00441806
-0.00929364
0.0583079
-0.142424
0.0841156
0.244897
0.22216
-0.467057
0.34513
-0.100233
0.556248
-0.0172285
0.0202297
-0.00300128
-0.0145936
0.0219137
-0.00732006
-0.0318221
0.0421434
-0.0102666
-0.0490294
0.0592961
0.0365356
-0.000115065
0.026269
-0.0339577
0.0266377
0.00267792
-0.0214824
0.00533847
0.00287903
-0.00821749
-0.00278311
0.0070011
-0.00421799
-0.0463401
-0.00039514
-0.0150266
0.0412923
0.0275812
0.021222
-0.0488033
0.0366927
-0.0299924
-0.00670024
0.0312955
-0.0305433
0.0330417
-0.0287528
0.00780726
-0.00237257
-0.00543467
0.511228
0.123612
0.582738
-0.0715103
0.886031
-0.418844
0.0858073
-0.00721036
0.00091796
0.0062924
-0.00791463
0.00255368
-0.00975368
0.00669134
0.00306234
0.00168808
-0.0114418
0.0118941
-0.00520279
0.00482351
0.0196355
-0.024459
0.00934675
0.00255232
-0.0118991
0.00678856
-0.00756501
0.000776454
0.00527131
-0.00686624
0.00159494
0.00320157
-0.00678705
0.01235
-0.0295314
-0.00875711
-0.00655809
0.0153152
0.00602568
-0.0147828
0.00727789
-0.013836
-0.020978
0.0114968
-0.00480289
0.0310719
-0.00830952
0.0120543
-0.00700567
0.0118292
0.0238835
-0.490017
0.547456
-0.0574383
-0.0221208
-0.00388275
0.0260036
0.00143221
0.0182033
0.0143205
0.0210202
-0.0746604
0.0536403
-0.0344544
0.0554747
0.000472451
-0.00524889
0.00477643
0.00592429
0.000154902
0.00639674
-0.00509398
0.759382
0.00912904
-0.76851
-0.0523173
-0.512623
0.193286
0.319337
0.0349917
0.00616333
-0.00830017
-0.0341578
0.0266915
-0.0396625
0.0712025
-0.03154
0.44273
-0.547536
0.104807
-0.0388043
-0.0300962
0.0689005
-0.0732439
0.0344396
-0.358424
0.594894
-0.23647
-0.579095
0.558398
-0.0592757
0.163427
-0.104152
0.104231
0.125069
0.003232
-0.00310133
-0.000130675
0.255784
0.114302
-0.370086
0.261725
0.0184497
-0.0168142
0.00816098
0.0234851
-0.0316461
-0.0207237
-0.0110985
-0.0327579
0.0231345
-0.0167497
0.0501094
-0.0333597
-0.886036
-0.188365
1.0744
0.571647
0.373624
-0.945271
0.470355
0.287368
-0.757724
0.180593
0.289762
-0.508455
0.619473
-0.467232
0.632085
-0.30592
0.392722
-0.441059
0.362312
0.755034
0.0115438
0.0196806
-0.0195755
-0.00368938
0.0304182
-0.0221215
0.00496535
0.0308705
0.00183598
0.00878272
-0.00757528
-5.62376e-05
0.00763151
-0.00573929
0.00872648
0.50615
-0.0424597
-0.0895954
0.447721
-0.358125
0.416554
0.00123225
-0.00198713
0.000754869
-3.90964e-05
0.00237829
-0.0023392
0.058665
-0.766983
0.708318
0.0022674
-0.000206286
-0.00206111
0.162321
-0.104013
-0.0391781
1.17951
0.285742
-0.96265
0.676908
-0.00140268
-0.00204877
0.00202564
-0.00342831
-0.753704
0.339545
0.414159
0.573111
-0.859716
0.493953
0.365763
0.0854495
-0.0231729
-0.267736
0.498364
-0.230628
-1.20099
0.557543
-0.00161482
0.0016148
-0.696213
0.669641
-0.00857779
0.00402637
0.777338
-2.03186
0.749037
-0.758231
0.00919434
-0.555477
1.62632
-0.608529
0.697056
-0.0885272
0.385146
0.257601
-0.642746
0.827876
0.00237772
-0.00237774
-0.244425
0.779884
-0.535459
-0.734442
-0.466573
0.800391
-0.623484
0.0359978
-0.0704523
-0.862512
-0.33848
-1.28583
0.824434
0.536425
-0.61477
-1.03688
0.470923
0.0450915
0.4637
0.879104
-1.3428
-0.830657
1.29436
-1.38613
-0.772363
0.353212
-0.689849
-0.0825135
-0.868285
0.00856846
-0.80962
1.33924
-0.814734
0.184794
0.394491
0.00138651
0.00251259
-0.0038991
-0.129412
0.364235
0.213933
-0.903782
-0.365398
0.152952
0.212445
-1.0674
0.624565
0.124472
-0.633133
0.00277133
-0.00299255
0.000221222
-0.955348
0.0315865
0.0816697
0.0238015
-0.467113
0.651148
-0.184034
-0.344234
1.47781
-1.82204
-1.00996
-0.104828
0.923876
0.520695
-0.0193787
-0.09175
0.0723713
0.830768
-0.510157
0.363655
-1.6937
1.39843
0.896857
-0.403982
0.211204
0.192778
-0.991671
1.85354
-0.737301
0.535982
0.201319
-0.261537
-0.475764
-0.207943
1.24584
-1.45378
0.00229629
-0.000664706
-0.305828
0.782696
0.0455004
-1.31795
0.19833
-0.519251
-0.00135956
0.00135956
-0.011758
-0.610406
1.5414
-0.179645
0.611741
0.0667393
0.0364448
-0.0240326
0.0561793
0.240612
0.115734
-0.16337
0.0109012
0.607785
-0.598656
-0.555468
-0.284444
0.901503
-0.418686
0.00240224
-2.4536e-05
0.646905
0.0322466
-0.480377
-0.590121
-0.0333627
-0.900456
0.310335
-0.534693
0.709153
-0.4338
0.549534
-0.718244
-0.265692
0.476896
-1.34641
-1.49005
0.649395
-1.0443
0.0545367
0.00190108
-0.253394
0.831761
-0.578367
0.0409256
-0.0972214
0.057289
0.0399321
-0.0561853
-0.0410363
-1.18983
1.05196
0.137869
0.227776
-1.27208
0.828208
-0.361618
0.0308765
0.230517
-0.261393
-0.0864794
0.117356
-0.00779653
0.0221171
0.016087
0.0166498
0.00480535
-0.393493
-0.569157
-0.619198
0.0917536
-1.55814
-0.0236749
-0.0615127
0.770222
-1.53114
0.76092
-0.878751
1.64897
-0.753804
0.212953
0.163479
1.2309
1.55814
0.170082
0.0545949
-0.0513127
-0.00328237
-0.00561944
1.64317
-1.02712
0.914943
-0.283051
0.00450209
-0.0962521
-0.0758419
0.080344
0.873947
0.200455
0.688533
-1.06261
0.643769
-0.37408
-0.937368
0.478131
-0.653047
0.0372983
0.817182
0.534131
-0.57647
-0.897786
0.321316
-1.08769
0.538629
-0.0473895
0.119761
0.0329546
0.150311
-0.00358247
0.00336665
0.000215834
-0.00219595
-0.145311
-0.572933
-0.391255
0.0184333
1.58819
1.08671
0.00170595
-0.00435343
0.00264749
-0.00340395
0.0051099
0.0100151
-0.00609283
-0.00392223
0.00259844
0.00741662
-0.00354334
0.00652526
-0.00298192
0.00535684
0.000224387
-0.00558122
-0.00115305
0.00941181
-0.00825875
0.00681232
-0.00647675
-0.000335568
-0.00468303
-0.00226559
0.00694862
-0.000509647
-0.00551947
0.00602912
-0.00439028
0.00209687
0.00229341
0.00136095
0.00719658
-0.00855752
-0.00135305
0.0107082
-0.00935521
-0.0102298
0.00356645
0.00666337
-0.00115451
0.00966933
-0.00851482
-0.01533
0.0152108
0.00011922
-0.00674585
0.00341013
0.00333572
0.00988004
-0.0115076
0.00162755
-0.0168466
0.0114706
0.00537601
-0.0042422
0.00386423
0.00037796
0.00785163
-0.00920468
-0.0176117
0.00137967
0.016232
-0.0097521
-0.00785955
-0.00693245
0.00294783
0.00398463
0.000250634
-0.00718309
0.00479963
0.00424064
-0.00904027
-0.00759943
0.000576473
0.00702296
-0.0026153
-0.00498413
0.000549586
0.00529011
-0.0058397
0.00915823
-0.00995942
0.000801189
0.00853116
0.00062707
-0.00762242
-0.00314157
0.010764
-0.00553048
0.00502083
-0.00138564
-0.0047536
0.00613924
0.00284011
0.00420644
-0.00704656
-0.007658
0.00701682
0.000641186
-0.00278195
-0.00487605
0.00615613
-0.00877143
-0.00976344
0.00157567
0.00818777
-0.00356443
-0.00619901
0.00110459
-0.00568032
0.00457574
0.00457058
-0.000654772
-0.00391581
0.00393846
0.000632125
-0.0164345
0.0287845
-0.00246163
0.00468345
-0.00222182
-0.00527217
-0.000525251
0.00579742
5.08151e-06
-0.00527725
0.00186026
-0.00332317
0.00146291
0.026133
-0.0403008
0.0141678
0.0263571
-0.00830292
-0.0180542
0.0023583
-0.00877254
0.00641425
0.0104628
-0.000958318
-0.00950447
0.00389005
-0.0027129
-0.00117714
-0.00742581
-0.00274902
0.0101748
-0.013952
0.00900187
0.00495009
0.00512297
-0.0102242
0.0051012
-0.00542622
0.00106292
0.00436332
0.0136381
-0.00320996
-0.0104281
-0.00843756
0.0220757
0.000175103
0.00764907
-0.00782418
0.00274782
0.00769022
-0.010438
-0.00678985
-0.00178278
0.00857263
0.00570708
-0.0121139
0.00640678
0.0084316
-0.00706785
-0.00136375
0.00305815
-0.00911552
0.00605737
0.00992037
-0.0223701
0.0124498
0.00229392
-0.00656254
0.00426862
-0.00695904
-0.000820722
0.00777976
0.00963433
-0.00507543
-0.00455891
-0.00777753
-0.000619618
0.00839717
-0.00656487
-0.000681314
0.00724622
0.00578951
-0.323888
0.318098
0.191138
-0.185348
0.0095213
0.000243
-0.0097643
-0.00184679
-0.00801644
0.00986323
0.000847617
-0.00405121
0.00320359
-0.00912868
0.00598736
0.00314132
0.00160403
0.00830547
-0.0099095
-0.0113167
-0.0040133
-0.00467603
-0.0066407
0.0110104
0.0153467
0.008091
-0.00809097
-0.00457228
-0.00449763
0.00906991
-0.00937446
-0.00592838
0.0153028
0.00642527
-0.0024633
-0.00396198
0.00714475
-0.00660866
-0.000536085
0.00479204
-0.00564499
0.0078421
-0.00219711
-0.00893804
0.00104216
0.00789587
-0.00397585
-0.00496219
-0.00808652
0.00793661
-0.0079366
-0.00195536
-0.00429152
0.00624688
-0.00789113
0.00758319
0.000307933
-0.00114057
-0.00675056
-0.00392988
0.0066853
-0.00275542
-0.00591184
0.00359671
0.00231513
0.00169252
-0.00760436
-0.00475869
-0.00249008
0.00724877
-0.010773
0.00476823
0.0060048
-0.00932363
0.0097742
-0.000450573
-0.00519464
-0.00412899
-0.000233401
0.0179199
-0.0176865
-0.019223
0.0287088
-0.00948571
0.00466705
0.00032866
0.00796312
0.000659728
-0.00862284
0.0098455
0.00659473
-0.0164402
0.0286104
-0.0427252
0.0141148
-0.00876621
0.0104006
-0.00163442
-0.00550797
-0.0106981
0.016206
0.00846143
-0.00538473
-0.0030767
0.0016529
0.00680853
-0.00428898
-0.00427925
0.00856823
-0.0068638
0.00992194
-0.0119556
0.00516576
-0.00439607
0.0101595
-0.00576339
-0.00122811
0.00339036
-0.00216225
0.00398899
-0.00584112
0.00185213
-0.00964122
0.00202976
0.00761146
0.0108507
-0.00325024
-0.00760044
0.00453025
0.00632043
-0.00521692
0.00121975
0.00399717
-0.00463157
0.00463665
-0.00864841
-0.000467115
-0.00590059
0.00312328
0.00449417
-0.00761745
0.00466693
0.00401032
-0.00867725
-0.00468158
0.00983987
-0.00515829
0.00817164
-0.0093122
-0.00878991
0.00775837
0.00103154
-0.00563646
0.00223251
0.00828626
-0.00301619
-0.00527006
0.0102968
-0.0112135
0.00091671
-0.00413257
0.00364638
0.000486217
0.00573059
0.0033098
-0.00904039
-0.00540066
0.0147588
-0.00935816
-0.0153423
0.00559017
-0.00546222
-0.0081317
-0.00738788
0.0155196
0.0134596
-0.0215913
0.0390068
0.00999605
-0.00845081
0.00610928
0.00234154
0.00656044
0.00117205
-0.0077325
0.00785044
0.00491339
-0.0127638
0.0306405
-0.0606982
0.0300575
0.0469912
-0.0163508
-0.00631078
0.00609377
0.000217013
-0.0228548
-0.0258355
0.0486903
0.116752
-0.0140652
-0.102687
-0.00654663
0.00790117
-0.00135455
0.0290287
-0.00293737
-0.0260913
0.0409233
-0.0118947
-0.00241064
0.00689812
-0.00448748
0.00130075
0.0102722
-0.011573
-0.00483947
0.000487583
0.0043519
-0.000727022
0.00901831
-0.00829129
-0.00860377
0.0115725
-0.00296876
0.0163207
-0.0115313
-0.00478945
-0.000936914
-0.00446867
0.00540558
-0.00164581
-0.00364661
0.00529242
0.00562916
0.00459084
-0.01022
0.005589
0.000672311
-0.00626131
0.0115504
-0.00686779
-0.00468257
0.0100736
0.00147672
0.00466188
0.00507218
-0.00973406
0.0082034
-0.00340377
-0.000963704
-0.00634752
0.00731123
0.00210929
-0.00763273
0.00552344
0.0109671
-0.00836867
0.01051
-0.00806478
-0.00244521
-0.00513127
0.000216191
0.00659232
-0.0036055
-0.00298682
-0.000153522
-0.00919222
0.00558671
-0.00343917
-0.00429046
0.00772963
0.0104746
-0.0123214
-0.00822408
0.0039351
0.00264176
-0.00777199
0.00513022
0.00613981
0.00701633
-0.00472241
-0.0108473
0.00319169
0.00765557
0.00603878
-0.00390441
-0.00213438
-0.00291452
-0.000848015
0.00376253
0.000356687
0.00473126
-0.00508795
0.00651876
-0.00616208
-0.000616208
-0.00801015
0.00862636
-0.0797255
-0.192624
0.27235
-0.036125
0.0307409
0.00538416
0.00573864
0.000522781
-0.00626142
-0.00271217
-0.00760432
0.00265682
0.0049475
-0.00687405
-0.0066518
0.0135259
-0.00502524
-0.00815672
0.013182
-0.00438538
0.00911746
-0.00473208
-0.00402979
0.0103324
-0.00630262
0.00567171
-0.0035373
-0.00213441
0.000703154
0.00496855
-0.00215427
-0.00208793
0.00187443
0.00640068
-0.00827511
0.00194535
0.00553187
-0.00747722
0.000394303
-0.00800208
0.00760777
0.0039275
0.0116129
-0.0155404
0.000334716
-0.0076346
0.00729989
-0.00655639
0.00689111
0.00396654
-0.00621651
0.00224998
-0.0056255
0.00681928
-0.00119377
-0.00111187
-0.00451363
0.00716844
0.00465858
-0.011827
0.414011
-0.220725
-0.00561156
0.0111395
-0.00552793
-0.0110133
0.00339088
-0.00940925
0.00689633
-0.00494467
-0.00195166
0.00490962
0.001257
-0.00616661
0.00726768
-0.00590844
-0.00135924
-0.00126291
-0.00689668
0.0081596
-0.00109738
-0.00739509
0.00849247
0.002933
-0.00917959
0.00624659
-0.00806811
-0.00733605
0.0154042
0.000334723
0.00682815
-0.00716287
0.00048044
0.00621232
-0.00669276
-0.000765203
0.00861565
-0.0105024
0.00363859
-0.00281218
-0.00831702
-0.00739594
0.00671578
0.000680159
-0.003507
-0.00388894
0.0070164
-0.0067295
-0.000286901
0.00369634
0.00332006
-0.00697724
0.00942616
-0.00244892
-0.00768346
0.000706216
-0.00531035
-0.00434729
0.00965764
0.00534149
-0.0171416
0.0118001
0.0121127
-0.00775464
-0.00435803
0.00730093
0.00481174
-0.0405722
-0.015289
0.00530681
0.00374519
-0.009052
-0.0104347
0.0067531
0.00368155
0.00344625
0.00338193
-0.00682817
0.0155856
-0.00752133
-0.00806424
0.010121
-0.0141634
0.00404238
-0.00418257
-0.00421284
0.00839541
0.000105244
-0.00908101
0.00897577
-0.00421606
-0.00739372
0.0116098
0.00948746
-0.00697817
-0.0025093
0.00408777
0.00546198
-0.00954974
-0.00217612
-0.00795805
0.0101342
-0.00496058
-0.00466297
0.00962355
0.00278982
0.00504693
-0.00783675
0.00707829
-0.00769555
0.000617253
0.00122092
-0.00918282
0.00796189
-0.0261905
0.0205433
0.00564724
0.00800725
-0.0341977
0.00984227
-0.00684363
-0.00299864
-0.00760154
0.00124886
0.00635268
0.00363017
0.00454448
-0.00817466
0.000916572
0.00316829
-0.00408487
0.0578199
0.0239314
-0.0817513
-0.0276382
0.00863349
-0.00852824
0.00498194
0.00158789
-0.00656983
0.000210683
0.00595703
-0.00616771
-0.0219327
0.0148719
0.0070608
-0.0138957
-0.00803704
0.00228152
-0.00751648
0.00523496
-0.0409144
0.000575891
0.00844739
-0.00872436
0.000276973
0.00518229
0.00605648
-0.0112388
0.00705259
-0.0024177
-0.00463489
0.0197423
-0.0105211
0.0108341
0.00655315
-0.0173873
0.000391154
-0.00895429
0.00856313
0.00179188
-0.0129217
0.0111298
0.000201648
-0.0128927
0.012691
0.00527778
-0.00793151
0.00265372
-0.0101786
0.00331141
0.00686715
-0.00353103
-0.0052319
0.00876293
0.00297407
0.00546743
-0.00844151
0.00701993
-0.00676929
0.00450299
0.0038022
-0.00830518
-0.00943789
0.0044674
0.00497049
-0.00180295
-0.00763493
-0.00741488
0.00824691
-0.000832035
0.00848485
-0.000712331
-0.00777252
-0.00167381
-0.00201896
0.00369277
-0.0029424
0.0134805
-0.0105381
0.000160002
0.0115507
-0.0117107
8.9139e-05
-0.0101138
0.0100246
0.0077992
-0.0126131
0.00481391
-0.0113258
0.00330931
-0.00835882
-0.00296694
-0.00711996
-0.004728
0.011848
0.00399099
-0.0101732
0.00618228
-0.00792713
-0.00108222
0.00900935
-0.0060527
-0.0084971
0.00174752
-0.00578831
0.00404079
-0.00306776
0.00472627
-0.0223887
0.0116432
0.0107455
0.00797442
-0.00122518
-0.00674924
-0.00592078
0.00673856
-0.000817781
0.0141269
-0.00400586
0.00922097
0.00490588
0.0115797
0.00835239
-0.00738505
-0.000967292
0.00178751
-0.00480362
0.0353424
0.0103996
-0.00318052
-0.00721904
0.00806625
-0.00919854
0.00113229
0.0010236
0.00704265
0.00809585
-0.00888953
0.000793677
0.00385241
0.00424344
-0.00273906
-0.016484
-0.0111766
-0.00926817
-0.00721583
0.00772686
-0.0018813
-0.00584556
-0.00637522
0.00587338
0.000501841
0.00276415
0.00214652
-0.00491065
-0.0128312
0.00604209
0.00678911
-0.00609639
-0.00546873
0.0115651
-0.0232763
-0.0189585
0.0422348
-0.00976702
0.00597573
0.00379129
-0.00547018
-0.00429683
0.0109824
-0.00818585
-0.00279664
0.00303114
0.00760534
-0.0106365
-0.00866226
0.0075092
0.00205284
-0.00883296
0.00678012
-0.00676537
0.00531553
0.00144984
-0.00182691
0.00344031
-0.0016134
-0.00440228
0.0159989
-0.0115966
-0.0244307
0.0200284
0.138192
-0.241617
-0.185695
0.0647615
-0.0190783
-0.0456832
-0.010649
0.00464041
0.00600864
-0.0117243
0.00107524
-0.0041277
-0.00569086
0.00981856
0.00556586
-0.00969356
-0.0121933
0.02147
-0.00927666
0.017761
0.0270308
-0.00556081
-0.0102855
-0.0424379
0.0527233
0.0318761
-0.0421615
-0.00141306
0.00780979
-0.00459468
0.0238509
-0.0192562
0.0113267
-0.0281352
0.0168085
0.00162899
-0.0084629
0.00683391
0.0169273
-0.00447184
-0.0124555
0.0143672
0.00256009
0.00539038
0.00478497
-0.0101754
-0.00504767
-0.0100444
0.0188114
-0.00876699
0.00341102
-0.00505683
-0.0029642
-0.0382154
-0.0357782
0.0739935
0.0442697
-0.0659922
0.0217226
0.0048677
0.00569284
-0.0105605
-0.00225507
0.00712277
-0.000349509
0.00604235
0.00255047
0.0052306
-0.00778107
-0.00246631
0.00808326
-0.00561696
0.005853
0.00187386
-0.00414886
0.00945567
-0.00225614
-0.00206142
0.00431757
-0.0099407
0.0131684
-0.00322769
-0.00562924
0.014068
-0.00843879
0.00952492
-0.00121945
0.00638336
0.0105527
-0.00151513
-0.00903757
0.00366646
0.00408931
-0.00775577
-0.0110284
0.00600316
-0.00398198
-0.00658938
0.0105714
0.00890526
-0.00474369
-0.00416157
0.00203747
-0.0062289
-0.00424787
0.0104768
-0.00583774
0.00397016
-0.00821802
0.00308783
-0.00911515
0.00602732
-0.00633546
0.00942329
0.00584772
-0.00433627
-0.00151145
-0.00786391
0.00409457
0.00376935
0.00862166
0.00131028
-0.00993194
0.00301755
0.00402057
-0.00703812
0.00471006
0.00567347
0.0082174
-0.00979058
-0.0081924
0.00312451
0.00506789
0.0173851
0.0228259
-0.040211
0.0367398
-0.0192499
-0.01749
0.000562226
0.00657455
-0.00713678
-0.00561866
0.00618089
0.00188247
0.00469209
0.00949344
-0.00421566
0.00379258
0.00505636
-0.00884894
-0.000182829
-0.00444874
0.00539975
-0.00143321
-0.00588196
-0.0114883
0.00931028
0.00217802
-0.011182
0.0104549
0.00683632
-0.00290449
-0.00393183
0.00188545
0.0115741
0.0118058
0.0054177
0.00615641
0.00632288
-0.00988731
-0.00140313
-0.00891508
0.0103182
0.013239
0.00178842
-0.0150275
0.0199685
0.00849298
0.0312952
-0.00289818
-0.00583209
0.00873027
-0.0064681
0.00356993
0.00410649
-0.00463173
-0.00884729
-0.0284671
0.0373143
0.000653305
0.00766999
-0.0083233
0.010658
-0.00836628
-0.00229176
-0.0166595
-0.000392984
0.0170525
-0.044139
0.0205722
0.0235668
0.035207
-0.0259082
-0.0092988
0.00295163
0.00630351
-0.00925513
0.0129749
-0.0203628
-0.000189322
0.00604232
0.00466265
-0.00485197
0.00406093
0.0019814
0.00417581
0.00523599
-0.00533403
0.00950984
-0.00214887
0.00738486
0.00857422
-0.0224699
-0.00587857
0.00494166
-0.00604758
0.00398599
0.00206159
0.00051286
0.0218749
-0.0251889
0.00331399
-0.0067944
-0.00397861
0.0051844
0.00162792
0.00573398
0.00721692
0.00864873
-0.0065959
-0.00663025
0.00663021
-0.0380108
0.0122331
0.0257777
0.00509113
-0.00681475
0.00172361
0.00683865
-0.0016365
0.00427814
-0.00264164
-0.00190567
0.00190567
0.0188679
0.017872
-0.00821044
0.00732172
0.000888711
0.031639
-0.0008856
0.00672092
0.00414681
-0.0108677
-0.00235266
0.00907358
0.00175809
0.00791111
-0.0096692
0.00671503
-0.00326879
0.00877219
-0.00986958
0.0379062
0.0184731
-0.0563793
-0.00552301
-0.00514993
0.0106729
-0.0133533
-0.00330621
-0.000325956
-0.0130274
0.0139847
-0.0172909
-0.00636094
0.000528851
0.0253779
0.00181129
-0.0271892
0.0101463
0.0152316
-0.0267457
0.0285569
-0.002752
0.00766476
-0.00491277
0.00326032
0.00490628
-0.0081666
-0.0039737
0.00397369
-0.00445569
0.00731975
-0.00286407
-0.00669449
-0.0339563
0.0167333
0.017223
-0.0120814
-0.00769736
0.00436967
-0.0043696
-0.00363659
0.00363657
-0.00293432
0.0126267
-0.0096924
-0.000934012
-0.00761384
0.00854788
-0.00841021
0.00635601
0.00205417
0.00104836
-0.00542795
0.00437959
0.00593311
-0.0014107
-0.00452241
0.00698148
-0.0107555
0.0093524
-0.00710213
0.00686193
0.00024022
-0.00449793
-0.00197017
0.00595225
-0.00998204
0.00298429
-0.0029843
0.00468945
0.00351395
0.00520231
-0.0119743
0.00363434
0.00833998
-0.0147106
-0.000221036
0.0149317
-0.000406675
-0.00982616
0.0102328
-0.00747819
-0.00874456
0.0162227
0.0062237
-0.00411441
0.00288215
-0.00648686
0.00360471
0.0257659
-0.000415526
-0.0253504
0.0236731
0.00335767
-0.00692
0.00763629
-0.000716289
-0.0114992
0.00462516
-0.0136375
0.00213828
0.0132696
-0.00864445
-0.00985839
0.000904097
-0.00675971
-0.00309868
0.000833079
0.0058827
0.0176976
0.00992138
-0.027619
0.00399789
0.00613964
-0.0101375
0.00725781
-0.0167444
0.00948658
0.00438807
-0.00438805
-0.00936618
0.00256341
0.00680277
0.00323515
-0.00853598
0.00530083
0.00289624
-0.00289625
0.00856814
-0.005537
-0.0121791
0.00997654
0.00220258
0.0028499
-0.0071189
0.004269
-0.0129386
0.0143183
0.00385608
-0.00728506
0.00342899
0.00648483
-0.00547288
0.00571366
-0.000240783
0.00582157
0.00041013
-0.0062317
-0.0208667
0.0238529
-0.00298622
0.0208948
-0.000317417
-0.0205774
0.0100848
0.00512597
0.0102865
0.0123838
-0.00391583
-0.0100361
0.00434542
-0.00826124
0.000268636
-0.0103048
-0.00391221
0.00594963
-0.00203741
0.00381646
0.00255141
-0.00636787
-0.00568582
0.00568579
0.00420714
0.00385897
-0.00806611
0.00206883
-0.00206884
0.00589534
-0.010639
-0.00788792
0.00792594
-3.80181e-05
-0.265082
0.0603255
0.204756
-0.166406
0.244386
-0.0779802
-0.431488
0.304712
0.00931707
-0.000763775
-0.0085533
-0.00656315
0.000783785
0.00577937
-0.00371325
-0.465299
0.32114
0.144159
-0.15281
-0.312489
-0.000678159
0.0107518
5.06426e-05
-0.0147613
0.0138259
-0.00868042
-0.00514548
0.0138765
-0.00622398
0.00582461
0.00039937
-0.00423065
-0.00700949
0.0112401
-0.00709674
0.00613303
-0.00739569
-0.00086429
0.00825998
0.0220169
0.00415109
-0.000123384
-0.0207433
-0.0292371
0.0345797
-0.00534264
0.0116862
-0.00785814
-0.00305498
0.00305498
0.00174012
0.00646188
-0.00820201
-0.00606504
-0.00246494
0.00852998
-0.00432493
0.00399694
0.00277854
0.00427405
0.006595
-0.0110913
0.0133162
-0.00222489
-0.000328537
0.0186824
-0.0183538
0.0210665
-0.0213951
-0.000539095
-0.0050867
0.00562579
-0.0333248
0.00871698
0.0246079
-0.0285154
-0.00480943
0.0343728
-0.0256558
0.00419819
0.00244485
-0.00664304
0.00541794
0.00643383
-0.0119193
-0.00052372
0.012443
-0.00971317
-0.00220613
-0.0027789
0.0549439
-0.052165
-0.0154511
-0.0225597
-0.00468774
-0.00169092
0.00123257
-0.00501777
0.0037852
-0.000578396
-0.00603312
0.00661152
-0.00672304
0.00614464
0.00289251
0.0135184
-0.0164109
-0.0140801
-0.00347407
0.0175541
-0.0111876
-0.00626612
0.00754382
-0.0012777
-0.00509406
0.00697113
-0.00114956
-0.0324529
-0.000220525
0.0326734
-0.0134761
-0.0189767
0.0345317
-0.0347522
0.0216439
-0.0187955
-0.00505208
-0.00120304
0.00120304
0.00436523
0.0010893
-0.00126553
0.00563076
-0.0130758
-0.0150594
-0.0176704
0.00148417
-0.00148417
0.00310148
-0.00310142
-0.00179213
0.00179217
0.00597877
-0.00121054
0.00122008