/*--------------------------------*- C++ -*----------------------------------*\
  =========                 |
  \\      /  F ield         | OpenFOAM: The Open Source CFD Toolbox
   \\    /   O peration     | Website:  https://openfoam.org
    \\  /    A nd           | Version:  6
     \\/     M anipulation  |
\*---------------------------------------------------------------------------*/
FoamFile
{
    version     2.0;
    format      ascii;
    class       volVectorField;
    location    "1000";
    object      U;
}
// * * * * * * * * * * * * * * * * * * * * * * * * * * * * * * * * * * * * * //

dimensions      [0 1 -1 0 0 0 0];

internalField   nonuniform List<vector> 
29884
(
(7.49212 0.059791 -1.03923e-16)
(5.33347 0.0256638 8.8951e-17)
(5.41207 -0.115446 5.05326e-17)
(7.11042 -0.0760195 1.72206e-18)
(7.21671 0.103506 -3.03882e-17)
(5.74382 0.155779 7.36153e-17)
(7.90207 -0.117315 -3.50452e-19)
(7.40069 -0.000256785 4.25368e-17)
(4.70335 0.121724 2.54219e-17)
(7.13536 0.0178082 7.95657e-17)
(7.44371 0.00875059 -3.34244e-17)
(7.20164 0.195497 2.21939e-17)
(8.07929 -0.132232 -2.41813e-17)
(7.17094 -0.112511 2.44511e-17)
(7.1944 0.0995089 -3.29483e-17)
(4.43848 -0.0565184 8.5387e-17)
(8.23815 0.0513582 -3.53492e-17)
(6.67968 0.195511 -5.95178e-17)
(6.53154 0.163225 0)
(4.18582 -0.0038899 -1.6517e-16)
(7.80758 0.20981 1.45159e-16)
(4.94065 -0.0377908 0)
(8.0061 -0.0624672 -4.56734e-18)
(7.11443 -0.0216378 0)
(7.07078 -0.0131871 0)
(7.59552 0.0434751 -2.8336e-17)
(7.85943 -0.00923222 0)
(8.03235 -0.045239 8.44639e-17)
(5.16141 -0.024937 9.02864e-17)
(5.17364 0.113692 7.01952e-18)
(5.40017 -0.00821156 -1.79452e-17)
(4.81465 0.0889818 5.0021e-16)
(8.00543 0.0356842 -2.49129e-17)
(7.44351 -0.0312821 0)
(7.27755 -0.059419 -8.0273e-17)
(7.50846 -0.105374 6.28941e-17)
(5.02722 -0.0354859 7.80028e-17)
(7.552 0.132379 9.88733e-18)
(5.35728 0.146125 -8.02764e-17)
(7.79014 -0.154059 -3.68561e-17)
(5.03461 -0.0514647 0)
(7.0587 0.0705128 1.84349e-17)
(7.60569 0.193827 -4.80293e-17)
(7.23548 0.28204 -3.15643e-16)
(6.97372 -0.0160105 1.90626e-17)
(7.58855 -0.152183 -2.16431e-17)
(8.03599 -0.206312 0)
(7.68768 -0.119399 -6.6013e-18)
(4.80734 0.0345533 -1.68285e-17)
(8.36137 0.0908139 0)
(7.37467 0.125092 0)
(7.1851 -0.0743192 7.78916e-18)
(4.72418 -0.152262 3.74919e-17)
(8.4272 0.0293528 1.03358e-16)
(7.21376 -0.0620825 -8.2328e-17)
(7.10135 -0.136957 6.17033e-17)
(4.42063 -0.0181756 1.03342e-17)
(7.99861 -0.0548478 0)
(6.67825 0.0509298 6.40645e-17)
(6.91192 -0.14254 -1.02116e-16)
(7.7809 0.160986 -1.82767e-17)
(7.83047 -0.00936551 2.43713e-17)
(4.71665 -0.100599 0)
(8.13762 0.0522749 -4.47936e-17)
(7.12367 -0.0691283 2.94413e-17)
(7.00952 0.0799437 -6.32574e-18)
(7.46976 -0.0443761 8.83725e-18)
(7.84172 -0.1187 5.82858e-17)
(7.42589 -0.094946 -3.86529e-17)
(7.33611 0.0660409 5.67137e-17)
(7.2475 0.196321 3.7868e-17)
(7.67257 0.0658968 -1.12327e-17)
(7.51797 0.101915 0)
(5.63191 -0.138873 0)
(7.32067 -0.104983 -4.75553e-17)
(6.92636 -0.0930481 -1.79356e-17)
(8.14827 0.105172 0)
(7.89319 -0.123881 0)
(8.09995 -0.117424 0)
(5.1051 0.0340657 0)
(7.68049 -0.0812899 5.14944e-17)
(5.24021 -0.0514807 0)
(7.12444 -0.133544 0)
(7.01589 0.0923404 2.82434e-17)
(6.55752 -0.049674 -1.98327e-17)
(4.53496 -0.514003 -9.15145e-18)
(7.35651 -0.000273296 0)
(7.61498 -0.0297087 0)
(7.26919 -0.105769 4.35809e-18)
(3.67945 -0.847504 1.83882e-17)
(7.20636 -0.19738 0)
(7.89949 -0.243498 -1.93576e-17)
(4.55703 -0.107525 -5.22288e-17)
(3.35062 -0.71794 0)
(7.12351 0.123015 -4.38852e-17)
(1.53256 -0.338523 0)
(6.99611 0.013908 -7.64597e-17)
(7.00706 0.0127626 1.0133e-16)
(7.47386 0.0549966 1.73159e-18)
(3.39867 -0.553403 0)
(7.01183 0.036544 5.02503e-17)
(6.94251 0.0725067 1.12307e-16)
(7.67001 0.0168572 0)
(7.76462 0.020351 -3.44551e-18)
(7.37079 -0.114143 -4.2414e-18)
(8.13593 -0.117164 0)
(3.82662 -0.644856 1.49538e-17)
(3.71306 0.0355873 -3.73903e-17)
(7.12431 0.128731 -4.95053e-17)
(6.98989 -0.3339 0)
(7.41428 -0.213771 0)
(1.37366 -0.191688 5.98469e-17)
(7.2631 -0.0763256 2.90339e-18)
(7.15388 -0.111263 0)
(7.31753 -0.116686 -2.87767e-18)
(6.97435 0.107746 -2.83797e-17)
(7.16313 0.113246 0)
(7.14997 -0.221155 0)
(6.77097 -0.0838074 0)
(6.65774 -0.323675 4.10075e-17)
(7.0036 0.00598674 0)
(6.86969 -0.310304 2.6066e-17)
(7.33181 -0.163114 4.09724e-17)
(6.78498 0.19145 0)
(7.03772 -0.0263149 1.31916e-17)
(7.06353 -0.190455 -6.13456e-17)
(7.81954 -0.268133 4.37149e-18)
(7.96915 -0.0366641 1.5079e-17)
(6.88342 -0.220694 -4.21227e-18)
(6.98883 0.133868 0)
(6.77328 0.162067 1.3279e-17)
(6.95019 0.115686 -1.49596e-17)
(6.97952 -0.10388 4.07333e-17)
(8.14859 -0.116547 0)
(6.87212 -0.08344 0)
(7.48174 -0.0868208 0)
(7.65015 0.2357 0)
(7.35946 -0.107545 5.57526e-18)
(7.54529 -0.142455 -1.48471e-17)
(7.54611 -0.128844 3.10748e-17)
(7.40655 -0.112636 0)
(7.28891 -0.0218745 2.50627e-17)
(7.70607 0.137307 -1.84055e-17)
(7.75159 -0.227987 -9.42969e-18)
(7.99386 -0.184256 -1.02918e-17)
(8.01932 -0.209526 1.01581e-18)
(7.7682 -0.177054 1.91171e-17)
(7.49204 0.173984 5.55627e-17)
(7.81344 0.116083 -4.6849e-17)
(7.75082 0.20549 5.12469e-17)
(7.64247 0.122759 0)
(4.31059 -0.129414 -2.4087e-17)
(3.94903 0.00906197 0)
(7.91917 -0.143224 -1.29396e-17)
(7.83935 -0.2205 2.20655e-17)
(7.90188 -0.163176 0)
(7.94365 -0.185877 -6.79039e-18)
(7.83021 -0.20649 0)
(7.88318 -0.121527 0)
(7.9176 -0.177897 0)
(7.87623 -0.152044 -2.27718e-17)
(7.04545 0.0204544 3.48284e-17)
(6.96349 -0.054387 -3.53249e-17)
(7.55405 0.186255 -8.83626e-17)
(1.09525 -0.0667146 -1.17187e-16)
(1.04473 -0.00878631 1.12515e-20)
(4.92907 -0.0752858 0)
(4.72497 -0.00677744 0)
(7.00797 0.0422108 -4.36831e-17)
(7.95901 0.20564 5.24144e-17)
(7.35775 0.0485452 -1.53134e-16)
(6.9805 0.103505 0)
(6.97356 0.0746559 0)
(6.85392 -0.0564332 -1.93635e-17)
(7.01789 -0.0576279 0)
(7.03176 -0.18677 7.77155e-18)
(6.83773 -0.269404 -6.85569e-17)
(5.1693 -0.0322318 7.08645e-17)
(7.07314 0.138189 -4.00031e-17)
(7.26558 -0.201789 -6.97008e-18)
(7.00793 -0.28733 -1.54549e-17)
(6.3267 -0.372246 -3.19928e-18)
(6.3225 -0.279824 3.97666e-17)
(6.44048 -0.213689 7.50529e-18)
(7.17518 -0.10166 8.97383e-18)
(7.28716 -0.128934 0)
(7.06522 -0.0228464 -6.62786e-17)
(6.98556 -0.000432343 3.93227e-17)
(7.31505 -0.241181 -3.99398e-18)
(6.98468 0.104377 3.07998e-17)
(7.39031 -0.171601 0)
(6.5679 -0.080293 2.59281e-17)
(6.43386 -0.133033 -7.15655e-18)
(7.26017 0.159736 6.53179e-18)
(7.36153 0.12772 -2.52923e-18)
(7.04064 0.152093 0)
(6.84732 0.178167 0)
(7.37507 0.0543798 2.85901e-17)
(7.61653 -0.0178817 -9.73649e-18)
(7.46865 -0.129277 0)
(6.77575 0.0282085 0)
(7.60161 -0.035389 0)
(7.53154 0.058814 3.57219e-17)
(7.16912 -0.0116457 -3.65973e-17)
(7.37141 0.0694538 -1.01917e-16)
(6.58131 -0.301336 0)
(7.42828 -0.0728953 0)
(7.2024 -0.107738 0)
(7.33648 -0.0395834 0)
(7.8671 -0.118885 0)
(7.70977 -0.118321 0)
(7.89331 0.0664382 0)
(8.09727 -0.0793623 0)
(4.76298 -0.077109 0)
(7.06851 -0.0950132 0)
(3.90482 0.890981 -3.28189e-19)
(6.27992 2.43981 -6.30882e-19)
(3.70089 -0.0898803 1.66172e-18)
(6.6288 2.52304 0)
(2.78867 -1.55863 -1.67292e-20)
(2.70925 -1.53219 1.43274e-17)
(7.28675 -4.40404 6.60628e-18)
(6.7919 0.313663 0)
(6.70929 2.19284 0)
(4.18709 -0.896383 -2.10137e-17)
(2.65116 -1.60324 -1.52517e-20)
(3.8994 -0.778514 2.54925e-18)
(3.05584 -0.580695 0)
(2.50468 -5.12412 6.24046e-18)
(7.53807 -1.24425 0)
(5.4567 -4.34933 -7.80988e-20)
(3.77125 -0.804101 2.88644e-18)
(4.12804 -0.194649 8.77549e-22)
(6.09628 -4.1174 -2.14454e-18)
(6.20788 -4.13768 -2.05968e-18)
(4.07662 0.00996602 5.49656e-19)
(4.00657 0.0269123 -6.86232e-19)
(6.72877 0.23062 -8.40944e-17)
(3.68534 -0.0773858 0)
(5.19288 -3.70721 -2.43716e-18)
(5.52033 -3.64581 0)
(1.50918 -0.823015 0)
(3.8578 0.639745 -1.49826e-18)
(5.60228 -4.07007 3.78962e-18)
(6.12762 -3.42489 -1.96467e-18)
(6.42809 1.82767 0)
(3.97533 -1.48716 2.43102e-18)
(3.74494 -0.516926 0)
(5.6155 -1.25986 3.628e-18)
(6.86161 -2.32399 -1.36364e-17)
(6.38501 -3.65806 -3.91638e-18)
(6.39238 2.81072 2.31733e-20)
(6.35394 2.22735 1.95412e-18)
(6.32901 2.31443 -2.57054e-18)
(2.62929 -1.20046 0)
(2.68147 -1.40587 7.4582e-20)
(2.95641 -1.51632 -1.84673e-17)
(2.85856 -1.4635 -2.56954e-20)
(6.11973 -1.98943 -7.18908e-18)
(5.69492 -1.81463 6.00337e-18)
(6.54305 -1.61603 0)
(6.20583 2.40559 2.66106e-18)
(5.381 -4.15174 -1.7291e-18)
(1.72119 0.731819 -6.26395e-17)
(6.15185 2.80471 0)
(3.65219 -1.31946 0)
(7.33849 -3.81273 1.46701e-17)
(6.51715 1.94205 2.42449e-18)
(6.56522 1.98978 5.69869e-19)
(3.63115 -1.23259 0)
(6.48886 2.415 -8.19558e-20)
(6.46036 2.43173 1.0198e-19)
(2.9979 -1.43008 9.3153e-18)
(3.5754 -1.9318 3.89328e-19)
(3.44385 -2.09473 3.14523e-18)
(3.94651 -1.09763 4.27076e-17)
(3.73378 -1.0593 0)
(3.07501 -0.719008 0)
(3.18528 -0.788852 5.09735e-19)
(5.42594 -3.90287 1.79701e-18)
(3.88817 -0.262951 0)
(4.11797 -0.678192 -6.15624e-19)
(6.89658 -0.423276 1.94305e-17)
(6.4311 2.41701 0)
(6.58205 0.190911 5.64948e-17)
(6.33235 2.1131 0)
(6.37346 2.16092 0)
(5.81096 -4.40867 0)
(0.9531 -0.472214 8.4711e-17)
(6.87371 0.307937 -8.13425e-17)
(2.90679 -0.402542 -9.84745e-18)
(4.09592 -0.395447 2.2032e-18)
(4.11823 -0.265189 -1.04957e-18)
(5.3945 -4.0162 -1.07545e-18)
(6.0613 -4.46648 -8.54787e-19)
(6.07957 -4.43595 -2.68333e-18)
(6.24321 2.31572 3.8622e-18)
(4.09692 -0.466347 -3.52797e-18)
(4.1065 -0.603258 1.29837e-18)
(5.66935 -3.95699 -1.7259e-18)
(6.51171 -3.12384 0)
(3.9474 -0.950348 0)
(4.00913 -0.894175 0)
(3.97198 -1.03288 0)
(3.11666 0.437914 -1.74009e-17)
(3.81025 -1.76032 9.134e-18)
(4.18075 -1.35336 0)
(6.13288 0.106632 -1.68494e-17)
(6.29721 2.3037 -6.32662e-19)
(6.26935 2.24217 -2.24275e-18)
(6.30959 2.24783 -2.55165e-18)
(6.25955 2.29833 -4.91618e-18)
(2.94194 -1.66312 -2.07458e-17)
(5.23782 -4.04002 7.41134e-19)
(5.28813 -4.07383 -1.59124e-18)
(6.14646 -4.45397 4.15899e-18)
(6.31504 -3.85954 0)
(3.98409 -0.627759 2.38825e-18)
(7.38183 -3.41817 -4.60621e-18)
(7.37521 -3.63601 -9.93998e-19)
(7.11788 -2.99989 3.70066e-18)
(3.37263 0.11289 0)
(3.23538 0.349872 -1.73092e-17)
(3.21675 0.144086 0)
(6.23646 -4.54274 -1.51435e-18)
(6.45032 2.35344 1.10692e-19)
(3.04216 -1.92965 -1.38528e-17)
(2.96428 -1.73757 1.83876e-17)
(3.07716 -1.75153 2.22593e-17)
(2.89873 -1.92149 6.48851e-18)
(6.37874 2.37184 1.19971e-18)
(6.42502 2.35237 -1.76845e-18)
(6.40849 2.32987 3.76446e-19)
(6.40375 2.38427 4.48026e-19)
(3.84551 0.704656 2.91949e-18)
(3.79248 0.843518 -1.68211e-18)
(6.81235 0.280081 -2.66849e-19)
(6.39504 -0.815895 -3.26038e-17)
(2.87479 -0.735588 -2.0039e-17)
(2.85061 -0.972658 0)
(7.16679 -3.33169 -5.47716e-18)
(7.53468 -0.452771 -4.00509e-17)
(2.8328 -1.34598 5.82718e-18)
(5.82433 -0.875067 -2.07147e-18)
(7.13141 -0.241184 8.09616e-18)
(2.8436 -0.590893 0)
(2.94402 -0.578733 1.8942e-17)
(2.91008 -0.507034 6.74121e-20)
(2.88588 -0.631055 -5.46408e-18)
(3.59142 -0.0852032 3.19268e-19)
(3.58796 -0.26248 0)
(3.38177 -0.0199029 -6.81219e-18)
(6.49704 2.38832 0)
(6.47896 2.36611 0)
(6.52934 2.37078 2.04555e-19)
(3.29093 -0.451382 0)
(3.12539 -0.462778 3.28222e-17)
(3.07564 -0.114876 0)
(3.09134 -0.336469 -3.54725e-17)
(3.15176 -0.187599 0)
(3.40727 0.578327 -6.4542e-18)
(3.6454 0.2691 3.74185e-17)
(6.20194 0.157434 -6.09051e-17)
(6.71895 2.09947 -1.30154e-18)
(6.32675 2.3418 9.40866e-19)
(6.3552 2.36718 -1.96494e-18)
(6.71581 -0.634247 5.97489e-18)
(6.76298 -0.408472 0)
(1.12079 0.41195 0)
(2.67315 -0.547967 -8.29397e-18)
(6.93656 -3.41975 0)
(6.53958 -3.55077 -1.20003e-17)
(7.12791 -0.260196 -1.89256e-17)
(7.15109 -0.2459 1.49905e-17)
(7.08819 -0.296768 0)
(6.21662 2.45349 1.3843e-18)
(6.26669 2.51395 6.76277e-19)
(6.68576 -3.977 4.61744e-19)
(6.089 -4.48765 0)
(6.17473 -4.51391 2.01615e-18)
(6.06498 -4.51168 2.10473e-18)
(5.24976 0.219855 1.00514e-16)
(6.52286 -0.49803 -5.47614e-17)
(6.54221 -0.61884 0)
(6.61142 -0.422489 -2.39941e-17)
(5.83106 -3.85439 0)
(6.0431 -3.93287 4.38967e-18)
(5.92863 -3.97273 -1.84219e-20)
(5.90859 -3.86606 -4.09321e-18)
(4.2232 -0.365074 0)
(3.97824 -0.133794 -2.12999e-18)
(3.90127 -0.337459 -3.27099e-17)
(4.23663 -0.221997 0)
(6.17708 -3.99902 2.16821e-18)
(6.24558 -4.10049 2.03554e-19)
(6.31227 -3.97077 -1.50906e-18)
(3.92698 0.411347 2.43108e-18)
(3.8681 0.30537 0)
(6.01406 -3.50593 0)
(5.71069 -3.61271 -3.80225e-18)
(3.93951 0.407049 -5.38941e-19)
(3.64663 0.772562 -8.30246e-18)
(4.2955 -0.553833 -5.33471e-19)
(4.04592 -0.661887 1.8037e-17)
(4.19502 -0.68396 -1.15032e-17)
(4.21825 -0.451641 1.0414e-17)
(3.14132 -2.64346 -2.21468e-18)
(6.67979 0.251025 1.02093e-17)
(6.66846 0.221968 0)
(6.88167 0.140281 0)
(6.81546 0.172755 5.79699e-18)
(3.79008 1.09895 0)
(3.85733 0.970977 0)
(2.88915 -0.192187 -2.35306e-17)
(2.87964 -0.0748399 1.56245e-20)
(2.80462 -0.217898 1.08388e-17)
(3.37665 -1.2598 0)
(6.52009 -1.49861 0)
(3.62735 1.54048 -9.9393e-20)
(3.76614 1.41385 -2.04772e-18)
(3.75007 0.91511 -1.62314e-18)
(5.10042 -3.77974 0)
(3.15012 -1.19369 9.16329e-18)
(3.23111 -1.06088 1.80291e-17)
(3.01642 -1.15212 0)
(3.55893 -0.519579 0)
(3.80952 -0.349477 4.23595e-17)
(3.64332 -0.314358 -5.20124e-18)
(3.78653 -0.514714 -3.08087e-17)
(3.10358 -1.4591 1.80757e-17)
(3.26755 -1.34396 0)
(3.17085 -1.29421 -1.89853e-17)
(3.23227 -1.4712 0)
(7.63336 -0.39707 1.42556e-17)
(3.68074 -1.41963 0)
(3.47775 -1.28652 0)
(3.65015 -1.22328 0)
(3.48798 -1.44084 1.51045e-17)
(6.85201 -2.63788 0)
(7.10757 -2.50581 -7.50949e-18)
(3.85492 -1.1563 -7.26893e-19)
(3.95411 -1.07958 0)
(3.94831 -1.15881 6.5401e-19)
(3.86464 -1.08626 0)
(6.91079 0.074204 3.55627e-19)
(6.8759 0.00813637 0)
(6.52361 0.310196 3.33597e-17)
(6.61436 -3.90161 1.66145e-19)
(6.47109 -3.73098 3.56358e-18)
(6.67103 -3.806 3.29148e-18)
(6.42026 -3.83957 3.94135e-18)
(6.84235 2.07332 0)
(7.24888 0.447004 -2.62005e-17)
(4.51469 -1.55479 1.87633e-17)
(4.60473 -1.26254 -3.45351e-17)
(7.01875 -0.347406 1.59668e-17)
(7.10954 -0.27608 -1.10311e-18)
(7.03572 -0.322181 -1.04884e-17)
(6.84521 1.36427 2.74691e-18)
(3.95754 -0.187025 -3.57503e-17)
(2.08375 -0.192038 0)
(6.10131 -0.489479 -2.33072e-17)
(6.22062 -0.475446 5.35225e-18)
(6.39524 2.88158 -1.5051e-19)
(5.85636 -4.0792 0)
(5.91728 -4.02631 -1.9118e-21)
(5.99191 -4.06923 2.49072e-18)
(5.81403 -4.00499 2.28479e-18)
(4.28352 -1.24154 0)
(4.50333 -0.929773 -5.96445e-18)
(4.31048 -0.9793 0)
(4.50869 -1.17257 3.79678e-17)
(6.90505 0.11251 0)
(6.91448 0.0764333 1.4074e-17)
(6.90314 0.0941348 0)
(7.00323 0.0728031 5.25507e-19)
(6.99998 0.0917989 -1.77929e-17)
(7.58012 -0.181919 0)
(7.24702 -0.223596 -4.42331e-18)
(7.38172 -0.22365 4.74783e-18)
(7.42259 -0.179658 0)
(6.64378 0.177627 0)
(6.75659 0.0871255 -7.05427e-17)
(6.72338 0.158668 5.07395e-18)
(6.65935 0.128096 4.35738e-17)
(5.5785 -4.03182 -4.05581e-18)
(5.50319 -3.93673 0)
(5.47378 -4.013 0)
(5.60867 -3.97535 0)
(6.24191 2.39297 1.40395e-18)
(6.2724 2.41565 -7.66501e-19)
(6.2616 2.35637 1.15717e-18)
(2.84677 -1.05331 0)
(2.75462 -1.15674 7.08983e-18)
(2.76221 -1.07592 -7.46811e-18)
(2.852 -1.15274 -5.72961e-18)
(6.51867 0.204407 -9.37664e-18)
(6.3996 0.232826 3.64345e-18)
(6.46767 0.177041 9.36883e-17)
(2.18143 -0.289301 -2.30768e-17)
(2.09453 -0.0161359 2.37628e-17)
(6.94243 0.14748 0)
(2.13958 -0.195705 -9.88096e-19)
(5.40218 0.095685 -1.20519e-16)
(6.99568 0.0208704 5.08654e-17)
(7.01973 0.075988 2.1791e-17)
(2.06875 -1.03062 -7.58568e-18)
(2.29045 -1.08675 1.38796e-17)
(7.01116 0.116798 6.32475e-17)
(7.01013 0.0845349 6.86651e-17)
(7.00875 0.0916318 -2.26124e-17)
(6.95768 0.203291 8.79901e-17)
(7.03174 -2.28558 1.46462e-17)
(7.00211 0.242997 0)
(5.96917 -0.0843367 1.60241e-17)
(1.46727 -0.248299 -1.99812e-20)
(1.97274 -0.305787 0)
(6.77842 0.23239 -5.88963e-17)
(3.71331 -1.18314 0)
(7.43918 0.0178933 -4.38231e-17)
(6.99922 0.143475 4.69987e-17)
(6.8149 -0.0132467 0)
(7.8841 -0.405503 0)
(7.33685 0.340442 0)
(7.32153 0.413966 2.95472e-17)
(1.65765 0.49133 2.09401e-17)
(7.74586 -0.285954 7.71988e-17)
(7.68638 -0.347065 0)
(7.13774 0.177098 -3.13483e-18)
(6.8513 0.277689 0)
(7.24222 -2.54367 7.67711e-18)
(6.01325 -0.0703954 1.35882e-17)
(7.19116 -0.165446 -1.99823e-18)
(7.1351 -0.213693 2.42467e-18)
(7.17455 -0.192746 3.74154e-19)
(7.58515 -0.229762 0)
(6.67179 -0.456312 -6.00316e-18)
(6.65087 -0.572753 8.28766e-18)
(8.10835 -0.221855 3.65938e-17)
(8.16059 -0.136498 -3.71983e-17)
(8.07825 -0.130983 8.07698e-17)
(6.94545 -0.116652 2.64922e-18)
(6.84126 -0.0930213 2.62144e-18)
(6.97498 0.180319 2.61244e-17)
(6.97021 0.15472 2.56584e-17)
(7.00055 0.0232716 2.79978e-17)
(7.00303 0.0368917 6.06098e-17)
(6.43189 -0.382467 0)
(3.05308 0.471911 0)
(6.81741 -0.460183 0)
(6.79689 -0.582284 0)
(7.16211 -0.162373 -4.00007e-20)
(6.98266 0.256773 -2.69767e-17)
(6.22402 -0.081074 -8.23209e-18)
(7.00284 0.171144 -4.815e-17)
(6.99235 0.211266 0)
(6.99167 0.192813 1.02728e-18)
(2.1006 0.318234 0)
(6.93656 0.114766 -1.37933e-17)
(6.94633 0.103642 1.36241e-17)
(7.35168 -3.42024 6.68772e-18)
(7.23672 -3.0381 0)
(7.25911 -2.91163 2.84665e-18)
(7.42109 -0.371981 -6.84983e-17)
(7.17771 -0.0532923 0)
(8.2859 -0.0211209 0)
(6.57402 -0.0578115 -2.67244e-18)
(6.52674 -0.0494034 -1.9561e-17)
(6.84018 -0.0539273 2.74871e-17)
(4.64236 -0.277752 6.39091e-17)
(4.85407 -0.276087 0)
(7.52226 -0.391237 -7.87639e-17)
(7.46545 -0.364838 6.21927e-17)
(8.06837 0.0361537 -3.21736e-17)
(8.18289 -0.118186 0)
(6.02602 -0.173464 0)
(7.08136 -0.00316971 0)
(7.17718 0.391453 9.22998e-18)
(7.156 0.341061 0)
(8.08212 -0.135398 0)
(8.28473 -0.100637 -2.21878e-17)
(1.71437 0.549144 0)
(7.13825 -0.246242 -1.13463e-18)
(7.26835 0.00989007 0)
(4.61322 -0.75549 -3.07534e-17)
(7.22231 0.123 -3.96529e-19)
(7.23225 0.0809575 1.11943e-17)
(1.01661 -0.0859002 -8.09561e-17)
(3.72783 0.415431 1.53304e-17)
(3.5771 0.598871 -9.5625e-18)
(6.79808 0.210377 5.2009e-17)
(6.99736 0.053741 -2.59538e-17)
(6.99258 0.0721767 -2.72131e-17)
(5.1329 -0.947779 -3.12631e-17)
(6.46307 2.00524 -2.20917e-18)
(6.15845 -0.00305941 -3.50934e-17)
(6.03278 -0.058197 0)
(2.71266 -1.2214 1.24753e-17)
(2.73978 -1.31881 -1.26425e-17)
(6.66516 0.0738339 -4.37698e-19)
(6.55764 -0.00863991 7.39397e-17)
(6.65613 0.00624527 0)
(6.99953 0.0932658 5.5934e-17)
(7.00256 0.125513 1.95286e-18)
(2.4322 0.638866 0)
(6.96466 0.247674 -5.59323e-17)
(6.6089 0.236828 -5.52105e-17)
(6.57606 0.307574 -3.29544e-17)
(6.86521 0.232131 1.02028e-16)
(6.90331 0.233319 -7.34412e-17)
(6.92038 0.197571 -2.96176e-17)
(7.29995 0.0560206 -5.60051e-17)
(6.27673 -0.0289684 2.39112e-17)
(6.39264 0.0340788 -5.89705e-17)
(6.17678 -0.192657 -1.35802e-17)
(6.29161 -0.109442 -8.32685e-17)
(7.52068 0.00820162 0)
(7.67048 0.0749228 -2.54483e-18)
(7.17703 -0.142229 -1.89601e-17)
(7.87433 -0.00322586 4.76903e-17)
(6.55429 2.07423 1.44845e-18)
(6.98046 0.137422 4.43809e-18)
(7.06965 -0.321013 0)
(7.10567 -0.271295 5.61393e-18)
(4.15899 -0.388312 0)
(4.4465 -0.428838 6.95414e-17)
(7.46726 0.187906 -4.88644e-17)
(7.8228 0.15663 -2.03621e-17)
(7.523 0.117863 -7.26134e-18)
(7.43694 0.140178 5.33252e-18)
(5.66569 -0.138567 0)
(5.46989 -0.173918 0)
(3.45045 -1.53711 -2.09844e-17)
(3.25101 -1.55031 0)
(3.17271 -1.72036 -1.78014e-17)
(2.81444 -1.68251 -1.56172e-17)
(7.01659 0.053667 -8.26995e-18)
(6.7342 0.197692 0)
(6.81397 0.186427 0)
(7.53521 0.0248683 0)
(7.86781 0.0305576 -6.38409e-17)
(4.0627 0.207173 -2.8469e-17)
(4.25611 0.161973 2.40514e-17)
(8.34874 0.0852455 -1.53922e-17)
(8.21609 0.150304 -1.86324e-16)
(8.07282 0.0463692 -6.92026e-17)
(7.14469 0.0776705 0)
(7.70655 0.23482 0)
(7.03685 0.0755211 0)
(7.4235 -0.0549123 0)
(7.03222 0.184289 -4.72565e-16)
(4.91302 0.0303627 5.32291e-16)
(7.46449 0.17202 8.84456e-17)
(7.29988 -4.13156 0)
(7.38436 -3.9635 0)
(6.98839 0.0250484 -2.66394e-17)
(6.95227 0.0467843 -6.2021e-17)
(7.02188 0.0417453 2.04404e-17)
(6.93706 0.060696 9.03087e-17)
(7.9155 -0.256366 6.25528e-17)
(5.01292 -0.0550113 -4.48604e-17)
(5.17869 -0.117944 -5.74416e-17)
(5.34551 -0.0280079 9.01421e-17)
(6.89457 0.122332 0)
(6.88273 0.145454 0)
(6.8533 0.179775 0)
(6.87448 0.171524 -3.01612e-17)
(6.83306 0.212325 0)
(7.00127 0.0622205 4.16477e-17)
(7.32103 -0.0786163 5.56438e-17)
(7.03451 -0.133688 -4.73632e-17)
(7.58593 -0.360368 1.06376e-16)
(7.67618 -0.294827 -7.0872e-17)
(7.65451 -0.27495 -6.53982e-17)
(7.63241 -0.260299 0)
(7.46475 -0.275259 2.48746e-17)
(7.53703 -0.299619 -2.48025e-17)
(4.78263 -0.0793849 -1.93e-17)
(6.92461 -0.0362631 -7.09146e-18)
(7.83679 -0.23031 2.26713e-17)
(4.99518 -0.428761 0)
(5.16827 -0.372875 -2.55428e-17)
(5.37167 -0.376927 -4.40422e-17)
(3.02269 0.42474 9.6256e-18)
(3.04321 0.480074 8.43858e-18)
(6.39962 0.0936983 2.90943e-17)
(6.30673 0.122734 0)
(3.45747 -0.886639 -3.17382e-18)
(3.37295 -1.05469 0)
(7.69664 -0.10003 -1.08128e-17)
(7.8511 0.0311159 0)
(7.77749 0.110642 2.23985e-18)
(3.53089 0.80425 4.06151e-18)
(3.48054 0.793113 4.07136e-20)
(5.4161 -3.12886 3.52049e-19)
(5.43378 -3.2173 -3.21562e-19)
(2.62117 -0.912218 0)
(3.77926 1.81765 -1.26211e-18)
(7.87369 0.263854 -6.77918e-20)
(5.87785 1.13254 0)
(6.48884 1.02752 9.10219e-20)
(6.17402 0.974531 -2.6967e-19)
(2.51986 0.429722 0)
(5.91801 -1.97203 -2.70241e-19)
(9.46452 1.12633 -1.01946e-18)
(7.95679 0.490695 2.86522e-19)
(8.93221 -0.266481 2.30578e-18)
(6.51827 3.24229 -8.08269e-20)
(2.6327 0.450698 4.18432e-18)
(5.18195 -4.27553 8.37117e-19)
(6.66458 -4.81751 0)
(3.62743 -0.745702 0)
(9.39504 1.11119 0)
(5.13097 -4.19015 0)
(5.17387 -4.21284 0)
(6.04685 2.06787 5.88259e-20)
(6.0504 2.08729 0)
(6.42865 0.736925 1.72595e-19)
(7.07466 0.914698 1.90081e-20)
(7.07045 0.954729 -2.13119e-20)
(5.91211 1.06376 1.7866e-19)
(7.27614 -1.0046 1.22453e-19)
(7.30121 -1.09031 6.06392e-20)
(5.48655 -4.45565 8.14745e-19)
(6.21231 0.96144 -1.5336e-20)
(6.27711 0.926444 0)
(7.51587 1.08606 1.62253e-19)
(7.41409 0.841128 -7.84044e-21)
(7.41702 0.876017 -2.22352e-19)
(7.12296 0.957031 0)
(6.37732 -1.84057 0)
(6.3771 -1.78606 1.55438e-21)
(3.55684 -2.21521 1.78897e-18)
(6.34982 1.11812 1.23387e-19)
(6.34483 1.08974 -3.23955e-20)
(5.01184 -3.80561 0)
(1.53645 -2.05145 3.44464e-17)
(3.65972 1.67083 8.7391e-19)
(3.71745 1.70582 -1.4538e-20)
(2.54155 0.0228493 4.4524e-18)
(3.98294 -1.68854 -1.83825e-17)
(6.00333 2.544 5.45731e-19)
(8.63177 0.852559 3.86214e-19)
(6.13666 -4.60003 -1.68267e-19)
(2.34059 -0.955662 -1.59425e-18)
(6.62835 2.21699 0)
(6.73275 2.43207 -3.08585e-20)
(6.02988 -2.12786 1.1794e-19)
(3.19058 1.28936 -1.66385e-20)
(6.651 -4.76902 -2.53938e-19)
(6.68018 -4.76722 6.74433e-19)
(6.00889 -1.26084 0)
(7.08281 -1.23475 0)
(6.86361 -1.45549 -1.12361e-19)
(6.92325 2.87521 -2.23518e-19)
(7.20265 0.700671 -9.06242e-20)
(7.15368 -1.35668 7.70879e-21)
(6.28091 2.26775 0)
(4.8039 0.924665 0)
(8.35433 0.319629 0)
(5.94923 -2.09988 -7.6801e-20)
(2.81584 -3.25482 -1.83047e-20)
(2.94906 -3.06682 1.22816e-18)
(6.83123 -0.822574 0)
(6.84518 -0.92874 8.66253e-18)
(5.81301 -4.50003 -7.82754e-19)
(6.8795 2.68019 -1.03743e-19)
(3.24398 -1.79632 1.15269e-18)
(7.83964 0.783929 -4.95971e-19)
(5.48935 -4.5126 0)
(6.45967 3.28617 0)
(6.39705 3.24812 -3.25184e-20)
(6.05071 2.59401 0)
(4.89028 -3.15868 -4.29769e-18)
(6.5567 3.67296 0)
(6.7028 2.76402 3.27186e-20)
(6.59764 1.0815 0)
(4.01066 0.918239 5.96715e-19)
(3.98721 0.875756 2.93065e-19)
(6.10264 0.778578 5.08152e-19)
(7.75058 0.821224 0)
(7.73977 0.862563 0)
(7.82427 0.828878 4.89279e-19)
(5.46632 -2.66817 8.80774e-18)
(6.89893 1.15494 3.35796e-21)
(8.11302 -0.414077 0)
(8.09136 -0.331612 -1.01628e-19)
(2.30994 -1.99958 5.44078e-18)
(6.82326 0.935459 -2.00614e-20)
(6.84475 0.961531 0)
(2.69564 -0.139753 6.52914e-18)
(2.75921 0.0263779 0)
(8.36581 -0.14086 -7.88002e-19)
(8.35685 -0.0888184 -5.20263e-19)
(6.20661 3.2872 -8.18169e-21)
(6.82709 -4.81775 3.00918e-18)
(3.79989 -0.870495 1.54694e-18)
(6.77256 2.31614 6.69217e-21)
(6.71862 2.6444 -1.22554e-19)
(6.32173 2.42856 1.86406e-18)
(7.69906 -0.655432 -7.07713e-21)
(2.64653 -4.43984 6.49127e-18)
(6.99199 0.967322 -3.87599e-21)
(6.99117 0.933477 2.35044e-21)
(7.57313 3.16095 3.70093e-19)
(7.08161 -1.37286 0)
(6.9246 -1.41996 6.49002e-20)
(5.34563 -4.51683 1.18876e-18)
(1.61465 -1.3766 -6.81957e-18)
(4.04681 1.4211 2.30148e-18)
(8.1585 -0.724763 8.89011e-19)
(5.70086 -2.48607 -1.72674e-19)
(5.71013 -2.5574 4.29457e-19)
(3.85098 1.52699 -9.77404e-19)
(3.76755 1.66332 -1.30174e-18)
(7.18433 -1.29353 -6.86934e-21)
(7.16556 -1.24438 5.33501e-20)
(7.04303 -3.72396 0)
(7.73264 -4.83802 0)
(7.57687 -0.579733 2.50215e-19)
(8.03316 -0.325871 7.94289e-19)
(8.1383 0.978537 0)
(3.45801 0.879922 -3.86094e-18)
(7.35254 1.03525 0)
(7.52972 -2.95743 8.5574e-19)
(2.11967 -1.8717 2.29025e-17)
(7.44542 -4.07376 0)
(6.43286 2.22376 -7.4918e-20)
(5.12296 -4.23395 -3.13373e-19)
(5.13008 -4.25182 1.31048e-18)
(6.18806 2.31994 0)
(6.22531 2.31216 -4.38242e-19)
(6.74513 2.25107 0)
(4.52087 0.00153545 0)
(6.36794 0.683066 -1.05081e-19)
(8.95729 -2.6196 1.48191e-18)
(5.78828 -2.3699 0)
(6.43852 -2.74951 0)
(6.54972 0.906237 -9.99343e-20)
(6.92212 -4.44577 8.25687e-20)
(6.48473 -0.889841 1.83669e-17)
(6.75742 -0.980445 1.21509e-20)
(7.4861 -5.11846 -2.09845e-18)
(7.56737 -5.11137 0)
(5.98188 1.33492 0)
(2.16346 -4.06952 1.01626e-17)
(3.10646 0.568952 -1.95682e-18)
(6.71557 3.38729 1.94144e-19)
(6.1603 -1.77613 8.8793e-20)
(6.07195 3.12723 0)
(4.01307 1.27968 8.619e-19)
(4.10098 1.20431 1.63171e-18)
(7.1202 -0.568025 -2.95368e-19)
(5.80266 1.14918 3.30135e-19)
(6.81783 -1.23756 -6.62854e-21)
(6.81792 -1.30926 1.02661e-19)
(7.68704 1.12472 -1.9346e-19)
(6.46577 0.702574 -1.86642e-19)
(6.84319 0.875316 0)
(6.92833 0.867436 1.62732e-20)
(5.3678 -3.26015 0)
(5.2265 -3.33205 0)
(3.86306 -0.714308 0)
(2.68562 0.564152 -3.42632e-18)
(2.64735 0.52864 0)
(2.65871 0.674861 0)
(7.31583 -0.101756 9.32853e-20)
(6.85368 2.64366 3.47017e-20)
(7.57816 3.2152 2.11684e-19)
(4.14087 -1.50414 0)
(4.06259 -1.52442 6.22346e-19)
(4.84244 0.9002 0)
(6.60003 2.25203 9.23881e-21)
(4.0339 1.64831 0)
(2.54365 -0.90899 4.52734e-18)
(4.76447 0.0336076 2.01128e-18)
(4.82779 0.0280167 -8.64337e-20)
(7.83055 0.662931 -4.69925e-19)
(6.80483 0.643118 8.36358e-18)
(6.6283 2.736 1.60599e-19)
(4.50134 0.127184 0)
(4.5395 0.0712516 0)
(7.49227 1.47955 -3.74736e-20)
(6.54331 2.25111 0)
(6.27937 -4.64101 0)
(6.2513 -0.292288 -6.26097e-21)
(6.48229 -4.71217 -8.492e-19)
(6.23342 1.05304 -1.2775e-19)
(6.22441 1.02128 1.93759e-19)
(3.6141 -0.670022 -9.39857e-19)
(6.44042 -1.27722 3.13187e-20)
(6.60133 -4.69864 -3.82734e-19)
(6.61028 2.16829 2.83534e-20)
(6.37776 -4.65753 4.62914e-19)
(7.02865 0.521289 -6.35413e-21)
(6.96993 0.524448 -2.20156e-20)
(3.92966 1.62253 -1.83778e-18)
(4.41184 0.814494 0)
(4.398 0.865185 2.34599e-21)
(5.26436 -4.65201 5.61864e-19)
(6.48617 0.382468 0)
(6.41856 2.10745 1.80959e-19)
(5.52939 -4.47025 0)
(5.5305 -4.49754 8.37057e-19)
(4.24146 0.593448 -2.5623e-19)
(6.68963 0.966342 0)
(6.76286 0.978487 0)
(6.55119 2.10575 1.92563e-20)
(6.71685 2.22179 9.58094e-21)
(6.76395 2.26019 -3.45255e-21)
(5.15212 -5.18401 -3.08937e-19)
(8.03772 0.590771 -3.71405e-19)
(8.12374 0.581696 0)
(8.89083 -2.6586 2.99381e-18)
(7.03119 -1.33891 -7.96755e-20)
(7.03431 -1.26974 -3.64107e-20)
(6.93839 -1.36504 1.76678e-19)
(5.85314 0.608482 8.43531e-20)
(5.85298 0.660012 0)
(6.13059 0.479315 0)
(6.11113 0.439575 0)
(7.30953 -0.557964 0)
(7.35097 -0.531246 0)
(8.4903 1.033 5.78253e-19)
(5.69377 3.33057 1.69912e-19)
(6.80631 2.88124 1.99526e-19)
(6.85534 2.86116 0)
(7.31893 -4.54825 4.50098e-18)
(5.95612 -0.106542 0)
(7.48453 -4.71793 0)
(4.4677 0.48979 8.28066e-19)
(6.29242 -4.64427 -5.18947e-19)
(6.1833 -4.60475 1.07788e-18)
(7.42848 -4.44752 3.22451e-19)
(6.00134 -1.42951 3.07407e-19)
(6.85906 -4.99718 0)
(6.51698 2.13663 4.32735e-20)
(6.47159 2.09794 0)
(8.00907 -1.65424 -5.10692e-19)
(7.99298 -1.00402 -8.5097e-19)
(6.89276 1.02019 9.8862e-21)
(4.43019 -0.112764 0)
(6.83103 -4.55281 6.51674e-19)
(5.8568 2.70668 0)
(5.78817 2.69394 2.43235e-18)
(6.27542 -4.64057 -1.23669e-19)
(4.6595 0.305233 1.45927e-18)
(8.16916 1.0483 0)
(1.69691 -1.74345 0)
(6.495 1.65214 0)
(6.41501 1.74813 0)
(6.07693 -1.42906 4.5596e-19)
(6.59464 1.12439 2.8908e-20)
(6.52382 1.11977 -1.04076e-20)
(6.56777 2.52817 7.92045e-20)
(6.53106 2.55435 -1.64006e-20)
(6.72007 0.681132 0)
(6.1692 2.38571 -2.7578e-18)
(8.85372 0.632965 0)
(8.73383 0.630185 1.51775e-18)
(6.10485 1.01631 0)
(6.14804 2.88154 0)
(6.183 3.01616 3.39777e-20)
(6.76113 -0.836651 1.35606e-20)
(6.63279 2.99796 -9.01063e-20)
(6.61294 3.13798 0)
(6.39861 -1.12557 -2.11052e-19)
(7.795 -0.780605 2.27889e-19)
(7.91825 -0.684485 6.14269e-19)
(5.96504 2.11322 -2.1924e-19)
(6.02344 2.0982 0)
(7.50045 0.830587 -8.09021e-21)
(8.41959 0.859818 -3.52672e-20)
(8.42727 0.920717 3.27731e-20)
(6.26044 -1.3602 -2.90379e-19)
(6.18416 -1.45865 0)
(2.08864 -1.12034 0)
(5.28689 -4.30574 -9.99526e-19)
(5.22086 -4.32056 1.19331e-18)
(6.7352 -1.52674 -2.79121e-20)
(2.89325 0.502917 0)
(6.86808 2.72357 -7.83567e-21)
(6.83298 2.7353 8.98834e-20)
(5.0398 -4.23837 0)
(4.65317 -3.91768 -2.91486e-18)
(6.35785 -1.35188 -2.30199e-20)
(6.38716 -1.28143 8.98429e-20)
(6.29044 -1.33162 2.58483e-19)
(4.01176 0.506998 2.51737e-18)
(3.9196 0.606163 1.4445e-18)
(6.43931 -4.6629 1.63148e-18)
(7.56501 0.535359 2.5451e-19)
(6.74415 0.611343 -5.94779e-21)
(6.21527 -4.60855 0)
(6.18979 -4.59636 0)
(6.27486 -4.63169 0)
(2.98111 -2.90313 1.06737e-18)
(3.04458 -2.96333 2.9942e-18)
(4.76363 -1.16494 0)
(6.37667 -0.925366 -8.53705e-20)
(8.92745 0.0140687 -2.61367e-19)
(8.95764 -0.0215061 0)
(5.96324 -0.774903 -3.51339e-19)
(5.97274 -0.839185 2.27119e-19)
(6.77887 -4.82243 -2.00892e-18)
(6.73192 -4.79128 1.74556e-18)
(6.79863 -4.8531 0)
(4.21219 1.00006 1.00945e-18)
(4.18456 1.10125 7.70407e-19)
(2.63064 -2.3089 0)
(6.4477 -4.70496 -1.07587e-18)
(6.84329 3.07059 -4.46726e-20)
(5.98535 2.26367 4.09176e-18)
(5.35513 -4.43978 9.135e-19)
(5.36266 -4.47017 0)
(2.619 -3.27756 -8.26824e-18)
(8.20058 -0.513573 8.97647e-19)
(7.93599 0.265238 6.47738e-19)
(8.0618 0.233825 1.96296e-19)
(6.29037 0.986947 -2.86765e-19)
(2.57998 -0.114344 -6.45194e-18)
(6.2771 3.08854 0)
(6.36898 3.09067 0)
(6.69238 -0.728444 -1.11582e-17)
(6.7493 -0.825469 0)
(6.95043 -3.64959 0)
(8.23733 -0.222089 -8.60062e-19)
(8.21379 -0.153122 1.27856e-18)
(7.93336 -0.921741 0)
(7.86612 -0.891237 -2.99182e-19)
(6.31112 2.43087 7.9964e-20)