/*--------------------------------*- C++ -*----------------------------------*\
  =========                 |
  \\      /  F ield         | OpenFOAM: The Open Source CFD Toolbox
   \\    /   O peration     | Website:  https://openfoam.org
    \\  /    A nd           | Version:  6
     \\/     M anipulation  |
\*---------------------------------------------------------------------------*/
FoamFile
{
    version     2.0;
    format      ascii;
    class       volScalarField;
    location    "1500";
    object      nuTilda;
}
// * * * * * * * * * * * * * * * * * * * * * * * * * * * * * * * * * * * * * //

dimensions      [0 2 -1 0 0 0 0];

internalField   nonuniform List<scalar> 
29874
(
0.251583
0.207229
0.121572
0.155393
0.179025
0.24149
0.217084
0.141058
0.152903
0.141856
0.26798
0.257974
0.182021
0.262888
0.266097
0.2831
0.175212
0.277109
0.118827
0.141927
0.14066
0.143784
0.140536
0.153398
0.144482
0.177055
0.219847
0.143846
0.233405
0.233626
0.229566
0.195397
0.194975
0.220637
0.151482
0.158008
0.142247
0.162895
0.164079
0.200352
0.139905
0.139656
0.145186
0.133089
0.191344
0.160723
0.177988
0.244961
0.238981
0.239788
0.19376
0.291193
0.267485
0.278969
0.199567
0.192918
0.134864
0.169837
0.166089
0.172032
0.163764
0.149104
0.147478
0.16741
0.123467
0.189823
0.238424
0.176397
0.262156
0.283357
0.154935
0.148351
0.144379
0.109379
0.284861
0.230534
0.231954
0.226316
0.182947
0.16477
0.192345
0.110016
0.138327
0.146653
0.0954213
0.109374
0.148784
0.140871
0.188089
0.163261
0.0702444
0.139498
0.138619
0.14532
0.134748
0.138247
0.135933
0.0982598
0.0613139
0.101015
0.150876
0.138568
0.1388
0.167698
0.211668
0.0633705
0.0756166
0.154632
0.158882
0.144474
0.0748332
0.195891
0.20527
0.138528
0.138528
0.13879
0.134808
0.150751
0.000259634
0.142242
0.139784
0.178395
0.130115
0.114615
0.13687
0.138618
0.153172
0.146941
0.142075
0.135033
0.14001
0.137093
0.150504
0.143213
0.143571
0.14328
0.146254
0.134684
0.143811
0.233505
0.200241
0.171771
0.278091
0.169538
0.149491
0.152048
0.170742
0.182881
0.139763
0.276506
0.246789
0.240864
0.294366
0.119435
0.135484
0.140106
0.150239
0.162038
0.183723
0.185252
0.167004
0.18113
0.222258
0.163057
0.215969
0.190102
0.171874
0.150232
0.149356
0.154355
0.194015
0.173003
0.16444
0.092331
0.0808577
0.155001
0.148097
0.00033367
0.147817
0.145034
0.000271979
0.000251232
0.160473
0.143088
0.14098
0.158865
0.138315
0.138658
0.140697
0.138614
0.138494
0.190393
0.144924
0.139452
0.17067
0.143272
0.141865
0.154942
0.000505852
0.000504899
0.152221
0.150762
0.176745
0.163713
0.141029
0.138947
0.140615
0.216567
0.146738
0.140035
0.142439
0.145684
0.133823
0.141682
0.142994
0.146176
0.14565
0.142588
0.146328
0.152962
0.235802
0.197362
0.197861
0.162336
0.139692
0.146
0.151421
0.149339
0.161392
0.139081
0.139977
0.140014
0.137892
0.129574
0.144515
0.146559
0.135286
0.170913
0.159472
0.195982
0.198651
0.00669614
0.0421908
0.102013
0.107634
0.0379934
0.0358826
0.046464
0.131723
0.0455533
0.0824527
0.127018
0.0785866
0.0398028
0.103879
0.0515476
0.0421459
0.000524882
0.044537
0.0465149
0.0332117
0.0403246
0.0420722
0.0447942
0.0483359
0.0444283
0.0466093
0.115531
0.111991
0.000340275
0.0429067
0.0406432
0.0960809
0.0708325
0.108546
0.0802911
0.020462
0.000798669
0.104055
0.0604934
0.0589089
0.12663
0.126484
0.121954
0.121672
0.0708366
0.125207
0.125364
0.0523934
0.0559414
0.084855
0.0887357
0.0900996
0.0459178
0.048338
0.0469886
0.0478296
0.0271376
0.0866815
0.0889183
0.09842
0.0294655
0.117369
0.0287871
0.0918136
0.0895756
0.0457271
0.12772
0.0234318
0.00403609
0.0407473
0.0415456
0.0232174
0.0253714
0.0209028
0.0442615
0.0445356
0.0575583
0.11422
0.112054
0.0478172
0.0474313
0.0407951
0.0459204
0.110582
0.10853
0.111245
0.138261
0.0474191
0.0471522
0.136022
0.136475
0.0430159
0.0415883
0.0443008
0.0355616
0.111395
0.112838
0.113001
0.111371
0.0413566
0.0180617
0.044272
0.0481249
0.0463013
0.0460337
0.116352
0.116441
0.0454773
0.0908919
0.12826
0.124327
0.05346
0.0478844
0.0619066
0.105817
0.0530249
0.0533972
0.108349
0.000325057
0.0473941
0.0279886
0.0483094
0.0454233
0.0442704
0.088685
0.0895707
0.087261
0.132261
0.0606564
0.0562272
0.0597797
0.0564786
0.139528
0.131305
0.0628738
0.0706163
0.068818
0.0630105
0.0727401
0.0397397
0.0397658
0.120564
0.131293
0.110582
0.110504
0.115712
0.113607
0.115173
0.112365
0.0507741
0.0501112
0.0384172
0.0484909
0.0490218
0.0426155
0.0418344
0.0435576
0.0406057
0.138062
0.0462848
0.0473694
0.0481676
0.126779
0.12268
0.130444
0.0478017
0.0507076
0.0477623
0.0502909
0.089733
0.0822248
0.0854706
0.0871335
0.136795
0.0179494
0.0226074
0.0416395
0.0378379
0.0457683
0.0454019
0.0428632
0.0817093
0.0698861
0.0864845
0.0829153
0.081132
0.0887015
0.0592037
0.0590621
0.0416867
0.0414473
0.043932
0.0394322
0.0403814
0.0435455
0.0382064
0.0395638
0.0430565
0.0691595
0.0769313
0.0710583
0.0739241
0.0523588
0.0489616
0.139383
0.14017
0.138083
0.136781
0.14056
0.0520785
0.0553132
0.0493185
0.0796042
0.0901299
0.0845529
0.0394159
0.041043
0.0423814
0.038631
0.0503158
0.0492151
0.0501764
0.0488232
0.0424321
0.0421499
0.0406857
0.077732
0.150988
0.144081
0.14763
0.148164
0.0659992
0.113599
0.105056
0.104027
0.107384
0.0487626
0.0449725
0.0524395
0.0727029
0.0611521
0.0673913
0.0647087
0.0634738
0.138173
0.0435338
0.0409867
0.0407353
0.043432
0.165909
0.000255297
0.137306
0.193922
0.000522188
0.138566
0.167994
0.13951
0.139501
0.139537
0.170269
0.116995
0.138032
0.138789
0.104729
0.134675
0.132917
0.13844
0.136611
0.118375
0.138489
0.13813
0.11634
0.138681
0.138439
0.00363582
0.139147
0.142232
0.000217676
0.13839
0.138794
0.14044
0.115248
0.140142
0.11805
0.118426
0.135157
0.139322
0.132127
0.134355
0.127191
0.152416
0.128696
0.124291
0.133839
0.129496
0.13882
0.130555
0.127535
0.121681
0.096772
0.0955166
0.000222867
0.00538562
0.157572
0.166405
0.138515
0.102636
0.106172
0.139295
0.134028
0.139809
0.139602
0.138299
0.0486699
0.0567188
0.0575077
0.123642
0.139201
0.22397
0.126441
0.102049
0.096488
0.0970653
0.138674
0.0090991
0.131306
0.132714
0.100631
0.106593
0.0391163
0.148848
0.140513
0.235275
0.203137
0.138314
0.138527
0.138477
0.0956259
0.158274
0.146407
0.12838
0.126565
0.145534
0.118759
0.120489
0.105929
0.139816
0.12719
0.137286
0.133829
0.158758
0.147712
0.0748901
0.0694269
0.118416
0.119872
0.143331
0.140224
0.000740792
0.149711
0.181872
0.142214
0.140344
0.13999
0.139296
0.139828
0.126746
0.134433
0.139206
0.055921
0.0557993
0.05958
0.139073
0.138173
0.138378
0.137975
0.139745
0.143376
0.147646
0.110475
0.0377029
0.139477
0.138108
0.145591
0.153684
0.0498778
0.0452622
0.121971
0.118915
0.161238
0.218801
0.159305
0.177563
0.0451012
0.0453468
0.110551
0.114374
0.117746
0.0851577
0.0913432
0.13781
0.13763
0.137358
0.170751
0.141028
0.13878
0.138708
0.13395
0.135741
0.139119
0.13859
0.132619
0.133061
0.13097
0.139744
0.137005
0.145788
0.149393
0.000444118
0.00428663
0.117519
0.113435
0.122367
0.0636698
0.0594068
0.168003
0.170256
0.158071
0.00578882
0.00680442
0.077066
0.0282408
0.135659
0.0365326
0.072017
0.0327465
0.0368774
0.0621313
0.0575075
0.0571004
0.0566423
0.0864131
0.0861725
0.0940236
0.0949086
0.0736281
0.0421125
0.0570471
0.0311839
0.0509205
0.0655794
0.0652736
0.047853
0.0477049
0.0636314
0.0294794
0.00318786
0.030785
0.00367456
0.00242048
0.0703858
0.0526406
0.0528602
0.0641918
0.0228416
0.0525846
0.0248916
0.0587061
0.0262722
0.0740071
0.0471036
0.0461899
0.0623862
0.0397549
0.0386762
0.0150435
0.0180764
0.0627728
0.0290106
0.0616312
0.0635336
0.0929016
0.105704
0.0401776
0.0557963
0.0964351
0.0467669
0.0600546
0.0602685
0.0555255
0.0556849
0.0527091
0.0525342
0.0252962
0.0874875
0.0865586
0.0152139
0.0716436
0.018421
0.0016139
0.0650696
0.0640745
0.0449017
0.0015932
0.00136575
0.0663305
0.0738116
0.0156653
0.00424995
0.0910388
0.0917407
0.0561478
0.0401398
0.0403973
0.0899241
0.0647666
0.0479442
0.0386081
0.0403523
0.0517997
0.0746806
0.0746181
0.0225685
0.0203967
0.0315634
0.031219
0.0545805
0.0602374
0.0472086
0.0500328
0.0361613
0.0586755
0.00688123
0.0540296
0.0570351
0.0567777
0.0605604
0.0423801
0.0667021
0.040622
0.0435573
0.0701231
0.0446012
0.0431475
0.0728179
0.0488393
0.0556816
0.0760593
0.0386531
0.0294489
0.0282672
0.0568491
0.057459
0.0807549
0.00977445
0.0366259
0.00143909
0.0259559
0.08844
0.105015
0.0500961
0.0479131
0.0717797
0.0420849
0.0322408
0.069594
0.00981501
0.0500784
0.0580208
0.0664646
0.118436
0.118351
0.0359359
0.0364505
0.0639868
0.0526335
0.0839989
0.0597267
0.056798
0.076557
0.0616501
0.0175453
0.0367255
0.0310821
0.0439779
0.0558022
0.0581105
0.0616446
0.062539
0.013084
0.0150157
0.0627177
0.0305777
0.0311076
0.0509542
0.0486699
0.0736023
0.0607896
0.0597135
0.0860972
0.0513468
0.0537904
0.0347491
0.0765202
0.0766498
0.0763861
0.0561339
0.0539559
0.0403057
0.037266
0.105208
0.0569212
0.0570382
0.0339006
0.0325989
0.0319983
0.0488928
0.0700725
0.067294
0.0739752
0.0660306
0.0555115
0.0569517
0.0517046
0.0512752
0.0883378
0.0567076
0.0340484
0.032723
0.0717979
0.0536547
0.0300453
0.127199
0.0428489
0.0412304
0.0265889
0.0296923
0.0245382
0.060272
0.0562908
0.0196064
0.0846902
0.0246159
0.0853707
0.08379
0.0557248
0.0530636
0.0458446
0.0468254
0.0337575
0.086034
0.0869509
0.0837833
0.0829677
0.084438
0.0513538
0.0649695
0.0108413
0.069122
0.0834293
0.0845997
0.0135211
0.013023
0.0662064
0.0468627
0.0742582
0.0820293
0.0692171
0.0749648
0.035639
0.0926316
0.0796715
0.0146855
0.0515925
0.0638104
0.0955533
0.0950327
0.0948365
0.0635698
0.056314
0.0201581
0.0599169
0.0613927
0.0450549
0.0452883
0.0412278
0.0307827
0.0263163
0.0616931
0.0336679
0.0328595
0.0186957
0.0196631
0.00544906
0.0426103
0.0424131
0.0446697
0.0243969
0.0564117
0.0561261
0.0658636
0.039685
0.039
0.0373561
0.0671716
0.0504532
0.0664638
0.0430881
0.0454192
0.126134
0.0618067
0.081824
0.0753149
0.0634855
0.0635362
0.0642646
0.0569454
0.0199472
0.105745
0.100885
0.0153073
0.100528
0.0209815
0.0671437
0.0634064
0.0501948
0.0663789
0.0548291
0.0532549
0.0438441
0.00393477
0.0446685
0.0343314
0.0126016
0.00964325
0.077993
0.0681047
0.0461655
0.0470298
0.0457767
0.0456257
0.0653554
0.0643078
0.0623262
0.0621332
0.0538314
0.0525263
0.0398988
0.0413186
0.0392979
0.0497641
0.0483572
0.0359345
0.061907
0.0620466
0.0456168
0.0478983
0.0316356
0.0316104
0.00564254
0.00440286
0.0461782
0.028443
0.0253451
0.115617
0.109745
0.0333474
0.0315698
0.0363279
0.0331932
0.0301713
0.0433145
0.041373
0.0459078
0.0509844
0.0314664
0.0962281
0.0919983
0.101823
0.101222
0.10007
0.0570463
0.105985
0.103325
0.063019
0.0516532
0.0195049
0.0207381
0.0163703
0.0776937
0.0461808
0.0403991
0.0581966
0.0384257
0.0761879
0.0765893
0.0762705
0.0452052
0.0512141
0.0519012
0.0496941
0.0482701
0.059336
0.0593827
0.0615534
0.054945
0.0562545
0.0563902
0.057606
0.0374593
0.0359594
0.0564889
0.0561461
0.0561687
0.0563904
0.0537162
0.0547906
0.053353
0.0888281
0.0533956
0.0675093
0.0520048
0.0368529
0.00110025
0.0541497
0.0323527
0.0314001
0.102026
0.100741
0.102478
0.0682717
0.0673674
0.0680583
0.04139
0.0771218
0.0750434
0.0783574
0.0818109
0.0814746
0.0802942
0.080205
0.0511283
0.0521643
0.0697312
0.0119374
0.0701745
0.0203783
0.0917339
0.0561772
0.0406407
0.122233
0.0172231
0.0570562
0.0572153
0.0482729
0.0448915
0.0433216
0.0460629
0.0866955
0.106446
0.103442
0.0890705
0.0852725
0.0603085
0.0612509
0.0576745
0.0472563
0.0683773
0.0680529
0.0377674
0.0391601
0.0823749
0.0356733
0.0335093
0.0341994
0.055428
0.0539748
0.0541549
0.00867722
0.0165634
0.000640006
0.0662258
0.0651256
0.101901
0.0793975
0.000777802
0.0460928
0.0446196
0.0894524
0.0482101
0.0501591
0.049628
0.0486756
0.0647821
0.0661552
0.0611035
0.0619302
0.0322358
0.0308873
0.0619997
0.00974832
0.0422211
0.0434861
0.000569588
0.0673228
0.0669063
0.0676204
0.0628092
0.0318234
0.0301267
0.0325192
0.00745609
0.0201579
0.0189256
0.064776
0.0640375
0.0778276
0.0939056
0.0937336
0.0931377
0.100664
0.0993272
0.0996567
0.0413109
0.0660552
0.0653334
0.088583
0.0870316
0.0877853
0.00052974
0.0320168
0.0592641
0.0594866
0.103836
0.102038
0.102549
0.103374
0.065177
0.0649388
0.0265817
0.0235562
0.108604
0.00095103
0.0742509
0.0733374
0.0532673
0.0538632
0.0520415
0.00102741
0.0936372
0.0887142
0.000455682
0.000790103
0.00180413
0.0764349
0.0763528
0.0761576
0.0520577
0.0360389
0.038718
0.0962711
0.0726718
0.0516291
0.0516695
0.0508337
0.0634743
0.0630853
0.0347481
0.000674501
0.0995227
0.0523197
0.0527361
0.0506799
0.0379218
0.0373316
0.0918558
0.0924948
0.0916792
0.093453
0.0932119
0.095736
0.057824
0.00049211
0.055925
0.0312466
0.106929
0.10413
0.0209614
0.0193368
0.0393778
0.0398877
0.0691965
0.063071
0.0633543
0.0621591
0.0604703
0.0612528
0.0282798
0.0248697
0.0560673
0.000680453
0.000400175
0.057319
0.0369479
0.035835
0.0145463
0.014894
0.055169
0.0338934
0.0324334
0.0399274
0.106222
0.102504
0.0633048
0.0623869
0.0220935
0.0560677
0.0372012
0.0777597
0.0775916
0.0597949
0.0590912
0.0322013
0.0297496
0.000445627
0.000760245
0.0471127
0.0713031
0.0712104
0.000357821
0.0736844
0.0745532
0.0649046
0.0405338
0.0373834
0.0387238
0.0713612
0.0910371
0.0947463
0.0955616
0.0964569
0.0964102
0.0351374
0.0243316
0.0930804
0.0944171
0.0948695
0.0925275
0.0797197
0.0777356
0.101756
0.0643327
0.0607567
0.0598611
0.074113
0.0948312
0.0963024
0.00120127
0.00261062
0.0521981
0.05343
0.0533593
0.0519721
0.046017
0.0553856
0.0691107
0.0695045
0.0583849
0.0506311
0.0513315
0.0408747
0.0377866
0.0398118
0.0385227
0.0658005
0.0659423
0.0652014
0.0658695
0.0530708
0.054198
0.0533024
0.0538978
0.0364942
0.0374167
0.0382584
0.0358337
0.0303746
0.0332836
0.0299199
0.000684414
0.001153
0.0408183
0.0413966
0.0560158
0.0544512
0.0552132
0.0552934
0.0269288
0.0308592
0.112701
0.114753
0.10796
0.0387515
0.0901635
0.0924788
0.0526809
0.0525735
0.0530859
0.0525065
0.0680006
0.0677702
0.0751363
0.0742332
0.0850269
0.0860179
0.0484481
0.0470641
0.0470659
0.0483593
0.0910717
0.0915886
0.0908299
0.0917588
0.0122087
0.0202641
0.0876988
0.08964
0.089432
0.0877478
0.0880439
0.0519518
0.0519814
0.0535544
0.00133157
0.0214164
0.020319
0.0241645
0.0531246
0.0534909
0.0514163
0.0492483
0.0923408
0.039679
0.0409535
0.0489871
0.0509946
0.0486043
0.0485255
0.0498174
0.049789
0.0342004
0.0530831
0.0535277
0.0527818
0.0539404
0.0383331
0.0369993
0.0389281
0.0485677
0.049678
0.0490016
0.055948
0.0570274
0.0570613
0.0557778
0.0710403
0.0705056
0.0712707
0.110867
0.108049
0.109253
0.0667033
0.0907124
0.0907566
0.0911784
0.0903248
0.0514494
0.0512702
0.0504252
0.0522526
0.0349946
0.0389122
0.0404512
0.0496584
0.0509611
0.0502065
0.00460351
0.00466162
0.0486973
0.0383588
0.0132826
0.0159135
0.0433991
0.0421535
0.0445203
0.0569349
0.0586263
0.0576681
0.0438302
0.0452559
0.137105
0.137336
0.0221145
0.0497409
0.0480881
0.0497603
0.0463658
0.0438207
0.0236506
0.0471954
0.0466162
0.0143512
0.0180727
0.0558573
0.0696363
0.068891
0.0693451
0.0692197
0.00805031
0.00784554
0.0509221
0.0482885
0.0506236
0.0477958
0.0189288
0.0724116
0.0981486
0.00774193
0.0600209
0.0590885
0.0963348
0.0983292
0.0968704
0.0503138
0.0458982
0.0515976
0.0517828
0.0510267
0.0835676
0.0802192
0.0815208
0.103413
0.105007
0.10459
0.103749
0.0671742
0.0683609
0.0678867
0.012969
0.0126569
0.051374
0.0506029
0.0503193
0.0949606
0.0986525
0.0662596
0.0662232
0.0666029
0.065837
0.0470058
0.0433786
0.0446916
0.04546
0.0321675
0.0412776
0.0402968
0.0592419
0.0580539
0.0585079
0.0588752
0.0433706
0.0425918
0.0435746
0.042297
0.0757068
0.0760074
0.0760475
0.0556711
0.055457
0.0568348
0.0586516
0.0589106
0.0593594
0.0582108
0.0268446
0.023478
0.0230052
0.0280238
0.035864
0.0387183
0.0351375
0.0353868
0.0595526
0.0604072
0.0600898
0.0474915
0.0459565
0.0414073
0.0396879
0.0404351
0.0406331
0.00846098
0.00653089
0.0822821
0.0796001
0.0805999
0.0811788
0.0846389
0.0862265
0.0822564
0.103782
0.118959
0.0868965
0.0890503
0.0533855
0.0524115
0.0525093
0.111308
0.107848
0.136513
0.0759244
0.0759956
0.0735724
0.0561161
0.0544271
0.0556754
0.0434616
0.0428468
0.0438383
0.0423609
0.0932786
0.093447
0.0923106
0.0436585
0.04479
0.04558
0.0401874
0.0392506
0.0276148
0.0299726
0.0297127
0.0456685
0.0476151
0.0468718
0.0463951
0.0429494
0.0409933
0.0423516
0.0922468
0.0931575
0.0936415
0.0918912
0.0293127
0.0477407
0.0442566
0.0438918
0.0429435
0.0570669
0.0569996
0.0572975
0.0569391
0.0457505
0.0467957
0.0470647
0.0455971
0.0472471
0.0469248
0.0486595
0.011535
0.0101731
0.0118596
0.0640989
0.0645062
0.0634025
0.0641183
0.0630214
0.111878
0.111719
0.0746178
0.039116
0.0563289
0.0589825
0.042179
0.0445326
0.0438746
0.0429727
0.0569844
0.0569268
0.0853201
0.0875332
0.0840291
0.044712
0.045321
0.0459337
0.0907486
0.0900066
0.0900719
0.0906219
0.0425325
0.0419879
0.0436918
0.0407384
0.0182775
0.0148818
0.016537
0.0895905
0.0885982
0.0892433
0.0682926
0.0677669
0.0920107
0.0919452
0.0282842
0.0249314
0.0256721
0.0322087
0.0309198
0.0317452
0.0857564
0.0572157
0.0586789
0.0580831
0.0578206
0.0422505
0.0456278
0.0647836
0.0647831
0.0649157
0.0610507
0.0549815
0.0554483
0.0548134
0.0642291
0.0646284
0.063952
0.0401487
0.04127
0.0402111
0.041097
0.0353378
0.0360773
0.0446297
0.0467193
0.0470758
0.0630944
0.063289
0.0623253
0.0857358
0.0853687
0.0849653
0.0370503
0.0389517
0.03983
0.0366034
0.00713957
0.00852845
0.0537109
0.0347639
0.0300849
0.0328493
0.0898986
0.0893202
0.092337
0.000868137
0.00862545
0.0565007
0.0571776
0.0574956
0.0748754
0.0750327
0.0571638
0.014159
0.0808163
0.0805364
0.0816614
0.07962
0.117747
0.117213
0.11923
0.0464431
0.0445258
0.0456219
0.0687948
0.0693835
0.0891127
0.0868308
0.0874384
0.0886158
0.0542866
0.0533227
0.0551224
0.0937327
0.093416
0.0944487
0.0927932
0.03038
0.0303501
0.0343715
0.0313687
0.0577409
0.0594824
0.0575009
0.0578791
0.0589804
0.0183453
0.0146756
0.0514745
0.0497055
0.0511039
0.0496529
0.0584045
0.0572188
0.0574917
0.0869854
0.100892
0.100676
0.100139
0.101578
0.0437834
0.0435532
0.0445812
0.00978261
0.010123
0.0538537
0.0548354
0.0531425
0.054161
0.0551294
0.0540027
0.0551682
0.0727934
0.0721084
0.087483
0.0964987
0.0918964
0.0996761
0.0991068
0.0985085
0.0448415
0.046707
0.0458543
0.0457304
0.050268
0.0498302
0.0648737
0.0484843
0.0472493
0.0482117
0.047609
0.118338
0.117263
0.0331443
0.0324634
0.0545
0.0553501
0.0554323
0.0543464
0.0676936
0.0670001
0.0673569
0.0673547
0.119641
0.0899388
0.0894898
0.046274
0.0486501
0.0480916
0.0463297
0.0389749
0.0407851
0.063566
0.107889
0.106435
0.109061
0.058904
0.0578599
0.0584199
0.0583711
0.0348771
0.0385631
0.0361951
0.0239198
0.0211912
0.0492964
0.0516325
0.0514059
0.0501965
0.0172733
0.00405146
0.0907493
0.0912145
0.0252738
0.0914084
0.0903345
0.0409197
0.097886
0.100381
0.0765152
0.0794506
0.048965
0.0448659
0.081264
0.0540741
0.053475
0.0544339
0.0732654
0.0468075
0.0447157
0.0460206
0.0489148
0.047721
0.0487978
0.0477256
0.123185
0.124408
0.0345816
0.0372335
0.0375734
0.0382519
0.0364837
0.0331011
0.0340528
0.0326237
0.0346402
0.13875
0.092258
0.0905613
0.0923045
0.0903016
0.0525727
0.0370158
0.0321088
0.0350833
0.0345443
0.0395556
0.0393974
0.0414373
0.0376085
0.137999
0.138185
0.0596879
0.0605122
0.0608399
0.0123007
0.0109541
0.0322511
0.0536343
0.0524613
0.0524672
0.0535272
0.0595087
0.0602334
0.0111463
0.0418365
0.0288938
0.0259555
0.0284754
0.0256153
0.0427524
0.0414095
0.0437156
0.000385681
0.0661262
0.0664503
0.0654779
0.10843
0.0985977
0.0711703
0.0489451
0.0576373
0.0587553
0.0574965
0.0953347
0.0960249
0.0504635
0.0519421
0.0507176
0.0563092
0.045948
0.0470532
0.0449719
0.0597176
0.0604909
0.0594736
0.120512
0.115157
0.113502
0.113805
0.114922
0.0487179
0.047085
0.0496918
0.0464203
0.00013589
0.0518804
0.0532568
0.0530862
0.0678187
0.0661156
0.0706721
0.0333839
0.00598045
0.0960212
0.05121
0.0518843
0.0648884
0.0650106
0.0263762
0.0273383
0.0258979
0.103856
0.10475
0.103222
0.105308
0.108895
0.0588245
0.0598434
0.0596415
0.0589745
0.0841995
0.0832139
0.0582396
0.0573534
0.0972273
0.0961515
0.0967363
0.0964976
0.0277878
0.0301441
0.028514
0.0346823
0.034967
0.0340206
0.0355918
0.0520713
0.0507294
0.0505978
0.0517563
0.0231483
0.0537561
0.0520903
0.0527482
0.0103534
0.0469213
0.0435825
0.045728
0.0444889
0.0336329
0.0364233
0.0337129
0.0921164
0.0915761
0.0920159
0.0802815
0.0802799
0.0372369
0.0382605
0.0350746
0.0399732
0.062994
0.0623577
0.062986
0.0623069
0.060931
0.059954
0.0604612
0.0604326
0.089424
0.088994
0.0896368
0.0887457
0.00388248
0.00391022
0.00412228
0.0125536
0.051907
0.0494974
0.043588
0.0421268
0.0426728
0.0430649
0.0402403
0.108909
0.108469
0.107754
0.109782
0.0720395
0.135777
0.134803
0.135079
0.135239
0.0540707
0.0552463
0.0541459
0.012982
0.0330708
0.0352086
0.0703487
0.0708074
0.0700021
0.089922
0.0897746
0.0896956
0.00018608
0.0410857
0.0396706
0.0398208
0.0650114
0.0568779
0.0573183
0.0566386
0.0411925
0.0418047
0.0421209
0.0579596
0.0576239
0.0586309
0.0576071
0.0585387
0.000459263
0.0447372
0.0417404
0.0440467
0.0408952
0.0707949
0.0677648
0.0723793
0.0485351
0.0496504
0.0493418
0.0477035
0.0396598
0.0621095
0.0613155
0.061436
0.0619583
0.113735
0.0477206
0.0487682
0.000672303
0.121423
0.121109
0.087664
0.087455
0.0869522
0.0881611
0.0576582
0.0526731
0.0565178
0.0545416
0.0372512
0.0388672
0.133279
0.0556905
0.0571858
0.0564124
0.0564504
0.0467019
0.0472214
0.0436116
0.044899
0.0330473
0.0295906
0.0398036
0.0412982
0.0403933
0.0407675
0.00114068
0.0342743
0.0341361
0.0327636
0.0356828
0.0654507
0.0656726
0.0656688
0.0193723
0.0170688
0.0516597
0.0514663
0.0717399
0.0483386
0.0492199
0.137179
0.0746289
0.0870154
0.0862748
0.0873724
0.0858028
0.133061
0.138187
0.0253353
0.0102627
0.0100232
0.0195501
0.030465
0.00581393
0.0113019
0.0115873
0.0148539
0.0614775
0.0369765
0.1386
0.00959176
0.00993408
0.00578122
0.00514583
0.138589
0.138428
0.138451
0.138264
0.00904514
0.0482737
0.0476183
0.122319
0.117851
0.12763
0.125534
0.078033
0.081236
0.0140844
0.00798015
0.00033072
0.0601045
0.0010048
0.0190634
0.000598276
0.00792708
0.00982049
0.130826
0.0809358
0.0309207
0.0226038
0.0250582
0.000394777
0.139165
0.00504854
0.00495931
0.00585433
0.059698
0.00475613
0.149169
0.144557
0.00733196
0.137981
0.000187512
0.0256172
0.0240555
0.0118845
0.0144556
0.0152077
0.120801
0.0604286
0.0224797
0.137284
0.137394
0.0315606
0.0248457
0.0226878
0.0535593
0.0876969
0.135777
0.136389
0.0237234
0.0226921
0.129591
0.00847615
0.00168369
0.000332189
0.120357
0.118646
0.00114298
0.0054999
0.022181
0.000955343
0.00041489
0.00424808
0.121479
0.114867
0.118184
0.1179
0.00307598
0.0300996
0.00657145
0.000238702
0.0229664
0.114196
0.11798
0.0272549
0.00656158
0.00359798
0.00330675
0.130515
0.0412764
0.132093
0.129614
0.130961
0.167929
0.0151834
0.0743544
0.00426875
0.00530187
0.000983755
0.112755
0.00671594
0.0360519
0.0124685
0.0264687
0.0248237
0.0246422
0.0345967
0.0208785
0.0217014
0.0220094
0.0177729
0.0247754
0.0269349
0.00874863
0.00899194
0.00198477
0.00351201
0.0215078
0.0189072
0.0165074
0.00439821
0.00506784
0.0302548
0.0319645
0.0212468
0.0201729
0.0211117
0.00222382
0.00622121
0.0148949
0.00098922
0.000345492
0.00053091
0.0168211
0.000664463
0.000860912
0.000347951
0.000527867
0.00861632
0.00115034
0.0437533
0.0185091
0.033011
0.0268299
0.00568513
0.00709101
0.0341503
0.0329897
0.0717401
0.019043
0.110839
0.0326486
0.0626786
0.00071511
0.00620445
0.132887
0.00433575
0.0973529
0.0800159
0.133084
0.132246
0.0311474
0.011062
0.138336
0.123218
0.124261
0.0161335
0.0506654
0.0500329
0.132053
0.00436553
0.00514136
0.00335279
0.00562587
0.00615119
0.00559406
0.00971663
0.0043356
0.129855
0.0336315
0.00465355
0.00610825
0.00562578
0.00746516
0.0285823
0.0279694
0.0476276
0.110564
0.00849895
0.000184688
0.137809
0.137667
0.0233028
0.02234
0.0298417
0.0286516
0.0188592
0.0796841
0.0240012
0.00878958
0.00141353
0.00783359
0.0337654
0.0304435
0.0994227
0.0864109
0.00286224
0.00308895
0.134225
0.0394896
0.0282555
0.0280378
0.0284924
0.00658207
0.0532468
0.137964
0.0166275
0.0177584
0.0154324
0.136519
0.136859
0.024869
0.0215735
0.00710199
0.0489634
0.0530514
0.0220049
0.0198596
0.00796302
0.00897539
0.135057
0.136272
0.0675545
0.150683
0.143868
0.138583
0.138408
0.013707
0.111463
0.00763333
0.00491675
0.0465424
0.00805095
0.00645512
0.0067459
0.0149139
0.100124
0.00869865
0.00978445
0.0237411
0.00535935
0.00565907
0.128761
0.00764936
0.0332998
0.00738534
0.0604337
0.136843
0.136935
0.00212746
0.114715
0.000849436
0.0198867
0.056639
0.0577037
0.0487526
0.0332653
0.0328212
0.011357
0.0122515
0.0160518
0.0381349
0.0244997
0.22823
0.185016
0.000480389
0.0389736
0.0390675
0.0376566
0.0376947
0.00865428
0.00343846
0.0501471
0.0401664
0.0402153
0.0408123
0.0394556
0.0268763
0.011135
0.115264
0.122024
0.125207
0.138027
0.138112
0.0250482
0.034784
0.0248794
0.026304
0.0276103
0.0992898
0.0927656
0.107229
0.0323153
0.026839
0.0251653
0.112533
0.0249794
0.0651063
0.0670003
0.069056
0.0358545
0.0289581
0.0579613
0.0571383
0.104168
0.138418
0.111188
0.109013
0.13061
0.108088
0.0113075
0.0159241
0.0114269
0.119607
0.118118
0.128328
0.00821921
0.0094741
0.0642807
0.0373219
0.035337
0.0219977
0.0200888
0.0469486
0.0471514
0.0484073
0.0289998
0.0157876
0.0305188
0.029851
0.0170091
0.0208367
0.13678
0.137169
0.136766
0.137165
0.0147132
0.014445
0.115388
0.0191448
0.0186945
0.0314537
0.0285056
0.0282338
0.0319787
0.034844
0.0343611
0.137842
0.136158
0.135599
0.0974878
0.0815328
0.0490669
0.136309
0.0172852
0.0154027
0.0119229
0.102332
0.275743
0.214163
0.240132
0.0454413
0.0440289
0.0870762
0.0345134
0.033734
0.0305427
0.00142509
0.21416
0.0116923
0.0374525
0.0408111
0.0394846
0.0379943
0.0024989
0.136079
0.136636
0.0105911
0.0290995
0.117309
0.138858
0.13891
0.106678
0.106031
0.000283011
0.0310406
0.0580213
0.0485912
0.0495727
0.0497911
0.000395213
0.114531
0.116424
0.112867
0.137246
0.136862
0.0292826
0.0274937
0.0291476
0.0163258
0.0271616
0.0428161
0.0432847
0.0421992
0.0946035
0.000681637
0.110515
0.107389
0.0168459
0.00219626
0.104665
0.109848
0.122139
0.11821
0.0413409
0.0408105
0.0208569
0.133381
0.0347614
0.0337844
0.0355653
0.0353143
0.196735
0.186383
0.0373152
0.0363464
0.0350498
0.00819075
0.010316
0.0107129
0.0121315
0.0131211
0.0253614
0.0157982
0.0392416
0.0383814
0.0389673
0.117259
0.120048
0.00172384
0.0378057
0.0474797
0.0479849
0.0491493
0.0369601
0.0412269
0.0576683
0.138456
0.0126909
0.0417614
0.0456939
0.0444479
0.122635
0.122188
0.0134888
0.13516
0.023518
0.00886664
0.0527111
0.0540524
0.054736
0.0474041
0.0467982
0.0959949
0.101526
0.0311385
0.029586
0.0212693
0.0223451
0.0285702
0.0255617
0.0166922
0.0134053
0.0157276
0.0316428
0.0409883
0.0202395
0.00301069
0.10678
0.0327225
0.0324052
0.0335326
0.0111057
0.0194676
0.124873
0.123755
0.0837904
0.0843143
0.0835013
0.0155457
0.0458275
0.00628923
0.000955586
0.138799
0.0505436
0.0236627
0.0223522
0.0240211
0.0491671
0.0358816
0.000517671
0.140493
0.0456963
0.07574
0.0196641
0.0255735
0.0661712
0.0299795
0.0287187
0.0103215
0.0565893
0.0353277
0.00448766
0.11366
0.105116
0.0987417
0.0994997
0.0971052
0.00148052
0.00375658
0.0373769
0.011709
0.0502925
0.054458
0.0441569
0.0444004
0.0343785
0.0349507
0.0389651
0.0186036
0.0193411
0.112723
0.108654
0.138876
0.13881
0.0928852
0.0911651
0.0059266
0.036923
0.0348855
0.0199324
0.0208789
0.0695279
0.067332
0.00431777
0.018329
0.0150789
0.0451916
0.0485496
0.120352
0.11773
0.0963513
0.138514
0.138398
0.035485
0.0347581
0.0433106
0.0425918
0.0240296
0.0217602
0.104914
0.0184347
0.01996
0.0442031
0.0454479
0.0462317
0.0456831
0.0492988
0.0482132
0.0838542
0.0833867
0.0821272
0.0641385
0.0646793
0.06506
0.0420039
0.0423349
0.126612
0.134705
0.135303
0.0158248
0.00928646
0.129778
0.127374
0.0433728
0.0428757
0.0443434
0.0440991
0.0614802
0.136295
0.144687
0.00201096
0.035408
0.0362818
0.0400023
0.117539
0.036371
0.139072
0.14061
0.0716019
0.0343641
0.0358295
0.0927136
0.0939775
0.0900852
0.0889946
0.0963009
0.0948538
0.00763902
0.00657383
0.0614075
0.0592434
0.139267
0.139209
0.13936
0.116216
0.0398848
0.116745
0.057828
0.0625564
0.0727338
0.069789
0.012867
0.0417087
0.0406957
0.10652
0.108003
0.0278863
0.118685
0.0266539
0.0166907
0.138425
0.138232
0.102966
0.0633015
0.0619391
0.0621808
0.062663
0.0140639
0.0156261
0.114207
0.0347634
0.0361683
0.0437384
0.154661
0.1662
0.0467008
0.137935
0.137606
0.0248344
0.0281458
0.138521
0.0594904
0.0606814
0.0601407
0.0360111
0.0366199
0.0612268
0.0651753
0.0414411
0.0401997
0.134591
0.00362091
0.0479197
0.0483858
0.0470107
0.0466844
0.0344957
0.111934
0.107849
0.104106
0.0738571
0.0705351
0.0725104
0.121721
0.117172
0.112489
0.0695025
0.0706865
0.0701427
0.133402
0.13467
0.134174
0.0888718
0.0761171
0.0479257
0.0487594
0.0134946
0.0122228
0.0138943
0.116337
0.102434
0.1088
0.113886
0.042749
0.138804
0.130735
0.128686
0.015647
0.0175043
0.0500016
0.0513634
0.0918614
0.0909589
0.0900233
0.121931
0.124313
0.117997
0.0733403
0.0837411
0.0848913
0.12398
0.124819
0.125854
0.0429199
0.0413714
0.136913
0.137257
0.137438
0.0487631
0.0468445
0.0460426
0.129097
0.130125
0.0548547
0.0552934
0.00557221
0.0500106
0.049713
0.040777
0.0409456
0.0182482
0.0195796
0.0391297
0.0404682
0.0402156
0.0714233
0.202137
0.256477
0.0295304
0.00310264
0.0680668
0.000785331
0.0874147
0.0883622
0.0391825
0.0135007
0.133104
0.138089
0.138165
0.122858
0.123881
0.0343442
0.0336873
0.138551
0.0764789
0.0761537
0.00493743
0.136369
0.137314
0.137705
0.063453
0.0627262
0.131981
0.10735
0.105305
0.126941
0.123127
0.131364
0.131504
0.0371061
0.0374027
0.0854402
0.0874332
0.0112087
0.096692
0.101497
0.180952
0.153178
0.097801
0.097792
0.118094
0.111686
0.0737068
0.0737604
0.155
0.141752
0.14181
0.0321758
0.0315508
0.0321384
0.0458657
0.0459104
0.0147056
0.135044
0.140832
0.127537
0.0552633
0.0513781
0.0769718
0.0767191
0.116436
0.116609
0.118084
0.026974
0.0288981
0.0793467
0.0802102
0.101353
0.103285
0.0348717
0.03836
0.0538395
0.0531448
0.0207121
0.021295
0.0226083
0.107812
0.112262
0.106867
0.0261951
0.0485221
0.0479358
0.0481102
0.037169
0.0375169
0.0364768
0.0434623
0.0452557
0.151455
0.0378435
0.0413088
0.0495606
0.0499942
0.0741762
0.0742894
0.0752281
0.0798474
0.077477
0.0753868
0.0492495
0.0481829
0.0409125
0.04208
0.0383901
0.0398691
0.040532
0.043861
0.046049
0.0117364
0.0273905
0.0287395
0.0258457
0.0233736
0.0259136
0.000724888
0.137349
0.136499
0.135718
0.138234
0.138521