/*--------------------------------*- C++ -*----------------------------------*\
  =========                 |
  \\      /  F ield         | OpenFOAM: The Open Source CFD Toolbox
   \\    /   O peration     | Website:  https://openfoam.org
    \\  /    A nd           | Version:  6
     \\/     M anipulation  |
\*---------------------------------------------------------------------------*/
FoamFile
{
    version     2.0;
    format      ascii;
    class       volScalarField;
    location    "1500";
    object      p;
}
// * * * * * * * * * * * * * * * * * * * * * * * * * * * * * * * * * * * * * //

dimensions      [0 2 -2 0 0 0 0];

internalField   nonuniform List<scalar> 
29874
(
2.94307
0.175122
0.121213
-2.98071
0.182589
-4.53625
-1.17152
0.682566
2.51575
0.53667
-2.41459
-0.0384655
-2.01392
-0.279625
-2.16872
-4.36378
-2.95918
-3.2732
0.336792
-0.0504485
3.17957
-1.85921
1.16897
0.846196
3.78436
-0.695641
-2.11713
0.193088
0.457087
-2.70613
-2.54766
-3.69003
-0.602265
0.975424
2.81291
1.37729
2.79154
-1.7881
1.39415
-1.09125
0.952196
1.12432
1.37821
3.17494
-2.46125
1.71855
0.986482
-0.830534
-2.93013
4.18515
-0.367103
-2.48222
-4.11384
2.56853
-0.311787
-0.799093
-0.71328
0.809437
1.74687
-2.28944
-0.739462
2.12938
1.46688
6.10653
0.236022
0.938462
0.309632
1.13146
0.628543
0.558653
-2.04024
-1.55857
7.55959
0.476262
1.24673
-2.63957
-0.938708
-2.37916
4.52406
2.55804
-3.37288
-0.257387
0.967249
-1.59917
14.4854
12.2824
0.431568
0.234891
-1.78209
-0.993708
18.1804
1.12312
1.18752
-0.598875
0.153988
2.9108
0.537226
14.3003
19.5717
-0.280164
-0.358869
0.459468
0.903231
4.62075
6.32629
19.4109
17.5689
0.176652
0.68808
0.340036
17.8496
-1.6185
-1.77396
1.0695
0.97433
0.974625
1.97815
1.61249
24.3238
1.63398
1.31326
-3.48277
-0.0463482
-0.117173
-0.128741
3.30082
-1.23969
1.25916
1.62447
3.82158
0.682761
2.9597
2.5301
1.1054
0.725371
1.50105
0.987039
-0.181596
-1.70871
3.48437
0.989922
1.5248
-0.577121
5.54155
0.887417
2.84998
-1.28048
2.01998
0.534769
1.82071
-2.16302
-0.851632
-3.33598
-0.223171
-0.609811
1.10912
3.77372
-2.17588
-1.78803
-1.93782
-1.4895
4.34907
7.15
0.856244
0.648928
0.961035
0.544437
3.32244
3.87637
1.02711
0.776901
0.632977
0.851485
15.7114
16.9893
0.77641
0.52117
23.6964
3.79804
3.88616
23.4971
23.5047
-1.50853
3.27844
4.14028
-4.55076
0.39053
0.458563
-0.225221
0.885233
0.899941
-4.85143
3.36877
3.49503
3.22867
1.72861
1.41626
-0.504308
23.3531
23.4539
-1.61924
-5.56448
3.26784
2.77041
2.18751
2.69769
2.20446
-6.22907
2.11787
2.23164
2.02355
0.473259
5.03237
3.34198
-1.4368
1.4158
0.661701
0.482504
0.50195
0.713646
-0.971814
-4.64574
-0.37965
2.14156
0.760205
0.464369
-0.385232
-0.20038
-0.639945
0.741697
0.773065
0.717217
0.00516842
-0.524726
3.32249
3.45527
4.33919
-0.598983
0.387571
-0.613507
-1.80654
22.2596
21.5813
3.70669
2.71085
21.0133
21.267
-10.4708
2.52457
-7.2501
16.0438
1.95299
-9.38759
18.3021
0.22615
20.6352
17.1006
23.244
-7.61224
17.283
-3.78571
18.367
16.9112
-4.04128
-5.35675
-6.85885
-7.18975
3.087
3.21612
24.6455
20.491
20.8655
-6.65084
-8.0841
-0.429065
2.75729
-5.90975
22.1017
3.95452
-0.620976
-1.66198
0.0748861
0.556356
2.17271
1.90344
3.06972
1.07085
0.670876
20.3889
20.1501
4.07919
2.67769
2.8047
-8.89098
-8.86786
17.0926
17.1069
-4.73244
-8.63402
-8.47984
-8.00828
17.8928
3.09715
19.1427
2.90919
2.99024
20.2112
2.13732
-4.77788
23.0265
-9.26311
-9.1681
-5.15243
-5.62652
-5.32515
17.6033
17.5812
-4.58309
3.45144
3.52026
-6.02281
-10.932
20.145
21.3564
3.8189
3.84157
4.15004
-0.644784
17.2924
17.0792
3.3849
2.782
17.4027
17.3164
-9.15045
-5.62362
2.82132
2.3526
2.36297
2.2847
21.0368
-5.01033
21.4147
21.081
21.1766
21.2735
2.05157
2.39737
-9.98978
2.78375
1.93262
-3.13011
-9.74718
-9.03094
-9.05568
0.436259
20.6729
20.3144
8.46718
24.6667
-4.22965
20.857
-6.76874
21.253
21.3107
2.67477
2.74957
2.46249
6.00583
20.0913
20.3703
19.4768
20.0437
0.818878
0.67027
19.6727
18.5105
18.3421
18.7291
18.0118
21.2
21.5879
3.33953
3.14172
3.14935
2.95833
-2.67427
2.11142
2.00846
1.7842
-7.43848
-8.61533
21.9666
-6.18077
-5.4465
-9.88838
-9.39099
-9.97491
-10.0267
2.79361
-6.43688
-6.97233
-6.47615
4.51736
4.49641
4.00671
21.2641
20.9577
20.8396
20.7641
15.6034
16.8678
16.0814
15.7268
1.66624
17.5893
17.2527
19.0865
19.611
21.0344
21.2772
21.5525
16.7048
17.7685
15.7413
16.7263
17.7108
16.279
-1.24013
-0.730253
-5.16465
-5.89582
-6.03637
-5.40571
17.5378
-4.12889
-3.8255
16.6141
17.0518
18.9377
18.2053
18.0742
17.6717
19.6545
19.7003
1.58234
4.24436
4.32036
4.58207
3.55889
19.8982
19.7066
20.6247
15.1672
14.6043
15.1626
-6.48988
-6.08634
-6.55146
-6.03279
-6.81375
-5.70887
-7.29777
-6.55138
17.7085
17.4185
17.8182
2.54152
1.07059
0.955587
1.01769
0.897766
0.668846
11.547
3.80038
3.66689
3.58455
19.3313
19.625
18.7952
-5.98398
19.6734
18.5639
18.8883
18.9059
1.05948
21.1925
21.5334
21.3635
20.7775
-2.11225
24.6144
-4.94287
-2.4411
23.6926
-0.57303
-2.47725
0.533033
0.608267
0.621797
-2.81574
-0.893114
2.53846
2.22577
-0.332927
5.52173
6.08241
4.21349
4.56892
-2.05604
1.41762
1.53302
10.6136
0.960907
1.04451
22.6683
0.5406
-4.28121
23.9075
-0.310411
0.910986
-1.21898
10.4764
-1.76928
-1.6616
-1.88816
1.04987
0.550685
-2.00026
-2.16084
-2.14934
-2.03826
3.59145
3.69512
0.297811
0.39211
-0.476367
4.97484
2.76882
2.85167
-0.209462
-0.270974
24.0628
22.4812
-1.32399
-1.28379
-1.93034
-0.141942
0.163355
3.18262
-3.87661
0.712801
0.810398
-0.183607
-7.80754
-8.56288
-6.93662
9.19011
0.593117
-4.29308
-2.42847
-0.39386
-0.392363
-0.3094
-0.71907
22.5894
-3.04902
-2.74274
13.9843
13.1944
21.5769
-4.07425
-0.78139
-6.79486
-4.51904
-1.26439
-0.990316
1.14499
13.8233
-4.61888
-5.29014
7.45629
8.44058
-0.528383
2.63297
2.62296
-0.58162
0.590079
1.02894
0.849839
1.06401
-5.01213
-5.62343
17.6536
17.9961
2.32128
1.92077
3.86479
4.25078
24.1318
0.173891
-4.09804
1.9697
2.12973
2.33767
0.536967
0.599354
1.49846
1.51276
1.39138
18.7077
19.1728
18.7758
1.84791
1.8881
1.74773
2.07117
-5.71032
-5.159
-4.9352
-0.441263
20.8235
3.83624
3.65741
3.38244
3.72206
18.1142
19.0991
9.25449
10.2323
3.18548
0.0141084
2.80584
2.3602
-9.28717
-9.91124
12.3539
11.566
10.7601
16.4121
15.8046
1.71993
1.80821
1.98268
-2.4825
1.40429
1.08019
4.39543
5.16947
4.80016
-0.837249
-1.00009
6.03941
6.08866
6.72205
0.822793
-3.3781
-3.22872
-3.02274
24.6321
22.6633
0.128887
0.268566
0.566682
18.9342
19.1437
-0.914127
-1.36684
-0.560577
-24.3037
-23.3874
6.43221
-10.2492
2.90763
18.8609
3.12388
21.6324
18.943
1.44464
5.80314
5.16115
-11.7924
3.09613
2.99857
3.7005
3.84633
5.8317
-7.78543
-2.96477
17.5474
16.5256
3.22508
2.87898
-11.8866
-11.9766
-0.140048
-12.6597
23.6724
22.4197
20.7828
21.026
0.313554
-3.98915
-3.55202
12.9644
17.7486
-3.70349
22.9317
-2.14421
19.0755
5.93118
16.4024
16.6274
-0.673143
-8.87251
-11.3014
15.9811
16.351
-0.0841236
-13.636
1.75995
2.38021
2.83636
2.64153
-8.60096
-2.69807
2.60279
0.596183
-1.04927
-1.27393
-11.4454
-11.2349
-3.75291
-3.4045
-15.1208
3.4935
3.3073
-18.534
3.26377
-7.63188
-35.6865
3.16791
1.17204
-6.69955
-35.352
-28.6446
3.53571
-16.1116
-19.2638
18.6564
5.89191
6.12754
-2.78361
18.1675
17.9695
3.0882
2.28218
14.6811
21.8415
21.6172
-4.26438
5.26944
5.06132
-9.43081
-9.13672
-12.4909
-12.0573
-3.37712
-0.379674
15.6221
15.5803
-6.08674
-1.26448
-4.97874
0.158126
-0.0692468
15.3162
14.2897
-8.09875
2.22655
-8.49411
-7.18687
3.4031
16.6327
16.7857
4.38188
-5.2708
-11.5285
8.58025
-13.6816
-10.8718
-10.9269
15.3404
15.3834
-15.3351
-25.6842
-12.8074
14.687
-18.3626
5.37286
3.0878
-4.64472
-5.81366
4.18657
18.0623
14.8189
1.89614
-24.8805
-5.06555
-1.21926
1.86299
4.11654
4.34958
-10.4909
-10.3487
3.57492
16.02
2.21326
-0.36562
-2.6257
6.42997
-0.311546
22.1782
18.9452
-11.4107
-7.45061
-2.89696
-2.07192
14.47
13.5215
-1.00695
-1.78695
1.4937
-12.612
-12.6548
-11.9271
-11.9239
0.494283
-0.624655
-0.815298
2.40051
-4.73269
-3.695
-6.12621
8.06642
7.25976
6.69635
-2.61921
-3.33819
-13.716
-13.9739
4.20135
-1.94433
-1.80327
21.4271
21.7055
21.4675
-11.0642
6.45925
4.24423
7.54476
5.33514
15.093
15.0139
-10.0217
-4.09315
3.19996
-3.19516
-11.5539
-12.4331
5.87581
-4.44049
-11.322
2.9462
-7.57431
-8.13592
-9.40697
-9.98032
-16.8046
14.3784
15.3715
15.9018
2.60318
-10.483
2.6504
2.12293
5.60305
6.65117
-6.6855
-6.73844
-10.9384
2.78304
2.99947
2.34155
2.21192
2.44245
-4.31563
12.8273
-24.2182
0.152833
2.17737
2.36538
-7.4425
-7.55195
1.16287
16.8298
-11.0035
-11.9623
-11.5957
5.06176
19.007
4.05935
1.50404
-22.7894
15.3596
13.3239
3.94849
3.85101
4.04179
1.03047
-2.21407
-20.499
-0.468303
0.419247
-6.55342
-11.1896
-11.0334
-2.43274
-17.2548
-1.53561
-11.3582
-12.8786
16.9077
16.5683
23.8956
-11.0519
-10.8055
-11.0057
22.04
14.9948
14.7794
3.14993
-10.9958
-9.79037
-10.6135
3.95765
-4.53565
5.92825
20.8371
-11.4136
3.10291
-0.519728
4.10615
3.70003
1.68792
1.85124
2.17056
-11.9388
20.6788
0.83399
1.39022
23.602
2.45653
-3.78438
1.0678
0.979802
-11.6629
12.26
-0.242931
-0.339642
17.7302
-4.54256
-7.02551
16.3816
-6.33554
-5.77967
1.32564
4.76191
17.28
17.135
17.6083
15.7255
2.94598
1.90527
0.545552
0.68077
-3.69768
-4.34407
-9.4945
-8.33089
-9.37536
16.3368
16.5932
18.8583
0.524765
0.80521
-11.5905
-11.7532
-8.2663
-8.60707
-5.09713
-4.54362
-6.10439
-4.51196
-3.92206
3.56875
3.10308
15.6373
16.1903
-11.0921
22.2795
17.6089
17.0397
-12.4935
-11.8876
-10.9389
-12.8004
4.20066
3.25619
3.46017
3.45376
3.34987
-8.38835
2.76292
3.14113
3.44787
-4.32774
-4.05101
-4.47764
-3.94453
2.234
-12.2888
-11.5371
3.5526
17.4035
5.25934
5.87894
5.53486
17.1248
15.315
15.3406
16.5366
16.805
-0.774623
-0.317602
-0.944996
-2.86681
-2.29543
-2.54649
-2.33462
18.7899
19.0478
-11.8524
-11.6853
-11.4981
-11.6513
-3.35354
-2.37318
-3.11503
3.04039
-3.27044
4.46564
15.4329
-9.87846
18.4505
-11.3402
16.7262
16.7053
3.25451
3.30238
3.33713
1.77006
1.6208
2.13697
21.3706
1.85764
1.74575
1.94804
1.77039
1.83246
1.76409
1.5486
-4.85997
-4.37414
6.05643
23.4227
4.02752
-7.04183
4.87506
15.4067
-8.28589
3.66593
-18.5163
-1.86142
-1.78148
-14.8917
15.8259
15.7138
15.7648
2.50217
2.27934
2.75137
3.02938
2.55686
1.11056
0.966215
0.942975
15.9948
5.43977
4.9514
-10.1806
-9.38204
1.92828
-11.0093
-11.8044
-11.1499
-2.73705
-3.40721
-2.69422
21.8238
-18.1688
23.083
3.48531
2.80854
3.19102
1.56896
21.8066
17.4678
17.6744
3.37318
17.1962
16.6875
16.371
16.6539
0.488149
1.05593
13.9887
13.8582
-10.8616
-10.9571
-0.382282
-3.22517
-8.06807
-7.08537
23.3874
4.4342
4.00012
4.53006
1.24471
-12.853
-13.1208
-12.3624
-6.29876
-9.86516
-9.74705
1.17982
0.755525
5.4764
3.41989
3.56151
3.30196
3.31716
3.33365
3.26185
21.7801
3.38075
2.76769
2.79722
2.51486
2.8199
23.591
18.7357
-1.23209
-1.48253
3.19869
3.27935
3.29138
3.14178
3.1162
2.57488
15.6117
15.6552
3.3585
20.7373
5.02484
4.49614
-10.1915
-10.7117
-11.158
20.1784
4.11364
3.77785
23.8158
21.2004
21.0732
8.50982
8.26107
8.43292
-3.43286
-10.1293
-9.10222
4.00713
3.61212
16.3484
16.4578
16.7009
0.950472
0.393384
15.7242
22.481
5.74655
-9.73398
-9.75863
-8.78246
21.7898
21.8624
3.88996
3.93967
3.51293
3.17389
2.98836
3.13451
14.8693
23.8557
0.772753
20.162
5.21067
5.21405
-16.0878
-16.8958
17.7303
17.6422
1.38584
0.830767
0.483969
-0.141427
-0.125893
0.684708
-8.91021
-8.26981
-2.13545
21.959
24.1508
-12.0218
16.6779
16.3014
-19.6203
-19.5284
15.5627
-11.3895
-12.2224
18.4565
1.81701
2.08524
13.4277
13.7281
-15.5509
-11.7495
21.4406
6.70983
6.84435
-1.27043
-1.50179
-9.38907
-9.18825
24.1617
24.1533
-11.3347
4.48148
4.13407
24.3496
4.33872
4.7874
12.9083
-13.327
-13.9185
-13.116
5.08727
3.22748
3.57254
3.18362
3.27806
3.44915
-11.2923
22.9561
3.01142
3.34753
3.40896
3.32682
1.67138
1.26772
2.86275
3.47715
0.068324
-0.0629003
7.66007
3.09269
3.2417
21.0472
21.4353
-10.4786
-10.9292
-11.1126
-10.9615
16.8595
-11.511
3.01888
3.2465
-1.78764
16.5288
16.4495
21.339
21.7361
21.3417
21.2834
3.12292
12.8337
12.5962
12.3821
-4.09484
-3.52258
-3.1086
-2.70836
15.8898
15.1199
16.0659
16.514
-6.77542
-7.20025
-7.457
22.8434
23.1184
18.3874
18.2775
15.3579
15.6246
15.5177
15.5092
-17.0658
-12.0473
0.42951
0.297218
-5.37991
-9.38325
3.94585
4.25774
-9.99469
-9.81358
-9.72728
-8.77342
4.8138
4.46821
1.1192
1.08078
2.15825
2.29613
16.5475
16.835
16.4153
16.0289
3.38922
3.32627
3.16416
3.35153
-1.99669
21.3638
2.32591
2.59106
2.82962
2.66853
6.3715
-10.4382
-9.92315
-10.4877
-6.00638
-6.99991
-6.6654
-6.95699
15.6863
15.2667
15.6299
-5.80652
4.38872
-9.21956
-7.65534
-9.66244
-9.71463
-9.11471
16.7226
16.557
16.7403
-8.23318
-11.6485
-11.5343
-11.5305
-11.546
-10.0517
-9.55738
-10.0154
16.5856
16.3222
16.1417
-2.61446
-2.05711
-0.822397
-1.5057
4.39683
4.33367
4.55239
1.98501
2.2458
1.7438
3.95699
3.87817
3.66617
3.40313
3.38645
-11.2285
-11.0048
-11.2063
-11.2905
-11.5535
-9.63075
-8.79741
16.8008
16.4943
16.3795
-4.10511
-4.76405
-5.22882
18.0312
-4.96068
-5.17752
-7.99859
-8.56285
19.8764
19.2391
14.8025
14.9656
17.79
17.4793
2.03838
1.84252
-15.1294
-8.59127
-7.79574
-8.45832
-12.8642
-13.388
-15.1034
-5.49968
-6.09343
-6.47387
-6.99144
-7.68809
2.96287
2.49072
3.10997
3.13399
-24.0361
-23.6296
-11.3093
-11.4381
-10.4883
-11.352
-8.12911
0.864537
3.52128
-23.2327
14.3822
14.676
3.43579
3.38989
3.25268
20.0191
19.9996
19.8632
-8.77379
-7.76895
2.40457
2.10265
2.3658
3.22892
3.03533
3.01542
3.05628
2.13027
2.51511
2.46936
-6.91655
-7.10979
16.3115
16.4581
16.6359
2.5346
1.82259
3.25036
3.43449
3.70139
3.02655
-8.85748
-8.62218
-8.84981
-8.35291
-11.5289
16.8044
16.8076
-0.463048
-1.19485
-1.55307
-0.984682
18.1535
17.9595
17.7006
18.0354
5.48662
5.63147
5.6087
-2.75419
-2.02363
-1.24374
-1.29907
-1.06573
-1.3341
-2.04659
16.2512
17.3414
16.6425
16.964
19.0502
-6.74339
-7.11961
-6.57769
14.6049
14.3483
14.0738
16.4535
16.8659
-8.23805
-9.1894
-8.63726
-8.46459
-5.6024
-5.10506
2.72057
2.3269
2.62457
2.50744
3.30932
3.72134
3.02635
5.08628
4.65771
2.42929
2.75802
15.7735
16.0529
15.8858
0.986117
0.80193
2.19929
2.24466
2.23413
2.3783
14.9098
15.1815
15.2096
-7.89915
-8.24732
-6.94069
-8.0842
3.60837
3.62925
3.46456
-7.74085
-7.43839
-8.17727
17.7029
17.7275
16.0814
16.1189
15.8638
17.1088
16.7966
16.8268
16.7594
17.7445
17.8169
17.6337
3.02556
3.21102
3.04003
2.78569
-13.7843
16.8004
16.5286
16.9137
16.7171
-11.9118
-11.8659
-11.8226
-11.6818
-6.0269
-5.51601
-6.40202
-6.84375
16.9759
16.9854
16.3722
22.9519
22.9569
23.016
0.499306
2.57114
2.14101
2.40363
13.6138
5.03744
4.75572
3.86591
-8.88185
-11.9973
-1.66034
-10.484
-10.6219
-10.4681
-9.99042
-12.0375
-11.9789
3.18618
3.17677
2.82579
16.8198
16.6185
16.5338
3.40599
3.29056
3.28343
3.68393
21.6872
21.7775
21.4574
21.7424
-5.8869
-5.66625
-5.46244
3.68559
3.53519
3.6897
5.25246
4.45467
4.54477
4.49498
-7.57167
-7.73028
-7.25303
-12.2665
-12.343
-12.2862
5.19997
15.3463
14.8209
14.6943
14.9678
-4.99301
-5.46492
2.90223
2.64489
3.77019
-0.220901
-11.416
-11.3053
-10.8908
1.34446
2.20831
0.978382
-9.53108
-9.12185
-8.79299
-8.50359
-9.79243
-10.0426
-12.9766
-12.7581
-12.1471
0.972597
0.791791
-0.0645101
2.35061
2.28154
2.27367
-8.76234
-8.47877
-8.75761
-8.48966
-26.6572
-25.7775
-3.50034
-10.7851
17.7434
21.3
3.66679
3.29027
3.70876
20.4028
-26.257
-1.95511
-1.43809
-1.95111
7.76083
7.72538
-2.26442
21.9182
1.77358
1.63633
1.98128
1.80118
1.78683
1.42837
1.48722
-6.42883
-7.54014
-6.81531
1.9208
2.51544
3.02027
2.84192
2.57938
2.83573
-3.4959
-3.78543
-3.35885
3.38787
3.24026
3.14828
2.98388
-13.4603
-12.8339
-10.5983
-10.0684
-2.24243
-0.0868344
-0.510105
-0.0251354
-0.0878168
-6.481
-6.09431
-10.3438
-10.002
-10.511
-10.5159
-2.10042
-12.0025
-11.9964
4.14375
3.23075
3.42531
3.59329
3.38726
17.6386
17.9514
17.8384
-5.33129
-5.1012
-11.0609
-11.4015
-11.2926
-3.50142
-3.00818
-2.48432
-1.72804
2.6981
2.28424
-12.0044
-13.5352
-12.0199
3.34876
3.31832
3.48837
17.235
16.7635
16.5501
16.9863
16.5823
16.6534
1.62672
-5.03864
-5.82421
-5.97994
-5.99781
-4.05892
-4.39894
16.8612
17.2044
-3.84186
-2.89727
-2.44527
-2.5642
4.59343
3.96491
4.44811
4.54214
-2.40054
5.49477
5.41267
-9.38663
-9.83316
-9.79521
-9.87443
-10.2725
-10.5098
1.2396
2.75195
3.07861
2.91631
-1.05518
-1.69487
-1.66384
-1.64873
22.1522
17.4083
18.005
-15.6581
-16.8523
-9.89288
-9.20266
-9.70047
-8.93727
-21.5002
-4.55791
4.22893
4.47775
-18.6303
3.11455
2.96053
-9.22582
4.13447
4.22285
3.55382
3.63284
20.4867
20.7639
1.76603
-10.6623
-10.0463
-10.6515
3.98017
-6.0954
-6.82967
-6.59315
-5.51618
-6.17814
-4.64921
-5.2415
2.34747
2.12579
17.7545
-10.4429
-10.0898
-9.56866
-10.505
16.3152
15.8723
16.6348
16.717
3.32212
2.91673
2.67576
3.11686
3.06401
20.5831
-5.17044
-4.90364
-5.05416
-4.18002
-7.64831
-8.36522
-8.47964
-8.16894
1.51163
1.445
14.4785
14.1773
14.5222
-5.65583
-5.56678
-11.6354
-3.8033
-4.19332
-3.18056
-2.78815
-0.565351
-1.02346
21.7092
17.8497
-6.57973
-6.06446
-6.43698
-6.7302
16.7557
16.9276
16.5757
21.3359
3.48394
3.66238
3.27174
1.30296
1.25049
3.14432
-5.95818
-1.78272
-0.460554
-1.02232
3.75762
3.47609
-4.34688
-3.53623
-4.68583
-13.3266
-11.8707
-11.8314
-11.8582
-0.972428
0.0583978
-0.910903
2.9466
2.73928
3.0412
2.47049
2.72174
20.5376
20.9255
20.92
21.2032
23.4146
-3.61534
-2.85671
-3.59647
2.18528
2.52773
2.79524
22.3173
23.5382
4.73674
-11.2927
-11.4126
0.760791
0.893758
-10.8261
-10.9288
-10.6163
3.23728
3.26045
3.43058
3.32073
2.46543
-1.05982
-0.710536
0.0263205
0.0730825
2.19583
1.88383
14.7717
14.9873
3.58386
3.65062
3.68378
3.53963
-13.5017
-12.4948
-13.5581
-11.5571
-11.3742
-11.4914
-10.7397
-8.45428
-7.71404
-8.69938
-8.88702
-15.1591
-11.8401
-11.8738
-11.7026
19.4181
20.8873
20.9925
20.3303
20.6541
-9.21219
-9.33882
-8.83015
4.22261
4.07763
4.25379
1.53617
1.58137
-2.55284
-3.29235
-3.00116
-3.74473
1.17669
0.592966
2.09459
1.69482
-0.557798
-1.23706
-0.603963
-0.486132
3.03419
3.11412
3.25851
2.84688
-4.42291
-4.58121
-4.40323
-20.9184
17.4731
17.7173
-6.97879
-7.72535
-7.6086
-7.21963
-9.44807
1.50634
0.94016
1.72935
1.41361
6.12419
4.9441
5.73958
5.28786
4.86261
-11.0813
-11.1301
-10.6515
-19.2385
20.4025
20.4435
3.82616
3.8337
3.36567
4.90474
5.09792
4.85365
24.7327
-12.1136
-12.6119
-12.6983
2.07228
-11.7996
-11.928
-11.9031
18.2857
18.186
18.056
-11.9253
-1.82876
-1.19092
-0.594389
-0.132421
22.6235
-11.0474
-10.8919
-9.95804
-11.5735
3.54634
3.37669
3.43643
16.8599
16.8081
-10.7836
-10.7661
21.7069
0.830548
-0.000483408
0.969835
1.56701
-8.71079
-8.08732
-7.89251
17.2345
1.49157
1.51325
2.87851
2.99831
2.60958
2.82829
19.7612
20.2478
20.0463
20.5123
17.2657
16.2979
-7.66655
-2.63378
-1.90581
-2.24436
-2.34478
17.0413
17.3305
16.8035
16.7515
-6.21809
-6.29412
-8.63817
-8.02531
-8.52547
-8.64635
7.12063
-7.46784
-7.85002
-7.73272
-8.11382
2.45907
3.22924
3.33514
-8.81515
-8.33159
15.672
15.5108
3.32582
16.9286
16.9638
0.582384
4.74187
2.22949
2.25504
2.5191
2.35593
-5.7741
0.176225
-17.664
24.0185
24.0255
20.0431
-16.1595
24.1102
24.0324
24.0032
-20.3352
-0.311974
-14.557
-0.106764
23.9118
22.8409
23.4596
23.6505
-1.83695
-0.0470283
-0.0220833
0.0467078
24.2376
-4.7417
-4.09794
6.27277
7.15559
-4.06186
-4.54777
-1.10914
-0.0893279
20.3435
24.2386
23.7421
-0.493816
22.3582
23.0777
23.485
22.7373
20.9572
6.78772
1.77876
-16.2364
18.1811
20.56
23.5324
0.39619
24.0382
24.0225
24.0152
-1.91473
23.8981
-4.18816
-4.61661
23.6886
-4.14727
23.7869
-12.0955
-12.5739
22.1158
20.0669
21.0601
0.961716
-2.85815
22.0527
0.977717
0.757314
-16.2823
20.5347
20.9517
0.413202
-0.497256
0.567251
0.800955
-19.2
-19.7242
7.33607
-25.9032
24.4536
24.6034
0.46455
0.232657
23.6209
22.4425
-19.3963
22.2452
23.7862
21.8324
9.81579
11.4039
10.6928
-6.88316
21.8616
4.37067
24.399
24.7157
22.2191
8.45963
7.79673
19.5816
24.4056
23.0089
23.0714
0.830536
-8.38338
5.86511
6.79363
6.16867
-3.60463
20.3409
-1.50491
24.5192
24.4541
24.5322
7.00802
20.3129
22.1531
20.4907
18.3679
18.3141
18.0955
22.1888
23.2941
23.2402
22.8698
23.2671
23.0426
18.6942
24.14
24.1393
19.943
18.9869
20.5237
23.1102
23.5244
23.5233
23.4578
16.5399
16.6051
22.7505
22.9245
22.9849
24.5517
-27.7335
23.6899
21.001
24.6779
24.7106
23.1884
23.423
23.2771
23.7516
23.709
22.2198
22.6789
1.65202
-21.6792
-11.2337
22.8918
-27.6827
-26.5966
-13.1898
22.1589
2.87821
21.3783
-0.648243
22.3037
4.1242
23.032
24.3121
1.3704
24.5388
0.36274
0.0580709
1.89682
2.17802
19.85
23.9702
-2.75332
0.773185
1.04913
21.7133
-12.2465
-12.3369
2.67313
23.9497
20.6803
24.5982
24.4349
24.4036
24.3921
24.0867
23.6486
3.47429
22.4132
23.6477
23.5919
20.7148
20.5848
22.7408
22.7522
-2.7005
11.1071
24.2766
24.6304
1.60573
1.6351
22.5491
22.4899
21.1011
21.136
18.5041
1.40574
-14.8209
20.2087
20.8944
20.1531
-1.08438
-1.00136
-0.663651
-0.155648
23.0805
22.9082
1.94548
-13.174
20.6426
18.0066
17.628
23.4095
-1.37904
0.218175
20.2168
20.3165
21.7153
-2.99461
-2.80736
17.6104
17.7036
23.1644
-5.72337
-6.86479
17.1483
17.3061
19.6498
19.7264
2.1209
1.81891
-0.390968
-3.49777
-4.01881
0.430125
0.369676
21.9513
-0.762315
22.8959
17.6336
-2.96514
22.5617
18.4376
18.7285
-22.747
-0.449424
21.709
21.852
21.0533
22.0491
22.0815
7.18643
22.3531
22.3675
22.7125
-0.961157
2.37291
2.26257
23.4349
4.37107
22.7815
-20.9161
-2.48305
-1.94201
0.0261425
22.1902
22.2569
21.0762
-24.0211
19.7643
18.5538
22.0888
-3.41866
-3.35452
22.2456
21.8224
21.8953
21.9503
22.0034
-25.4698
24.3011
-5.64759
21.8252
18.4235
18.3057
18.5325
22.8321
21.9894
-1.11903
7.36946
6.79932
0.0515884
0.136018
-18.1427
22.172
-18.2335
18.6178
18.5867
7.99562
8.74741
7.82318
-3.8224
-3.56239
-18.1507
-0.42304
18.8084
1.31333
1.42001
1.54442
18.8879
22.3283
-1.87022
-2.45765
-0.304491
-2.12514
0.702225
0.277441
1.69962
-3.83876
19.2249
-8.65422
-7.01348
1.31675
0.958456
2.29936
22.3925
22.1996
-0.623539
-13.7314
22.0948
17.9329
18.173
17.3661
17.1513
17.0831
-10.6927
23.5205
22.6064
22.6307
18.6243
20.3017
1.79795
1.70995
2.17101
1.86765
23.5594
23.5324
-2.6647
20.4822
20.4362
19.9726
19.9189
19.4881
20.9739
20.8405
20.5746
1.00207
1.10788
1.2705
4.62603
1.82068
0.535871
3.47538
-6.61835
-6.39321
23.8294
9.36494
-4.88516
-3.88729
-4.28123
-10.9792
-10.6249
3.43325
19.6036
19.1146
19.1284
24.5333
-0.0300511
21.2361
-10.4555
-10.7142
-10.7982
-10.5659
24.2178
3.07993
2.81545
24.0644
17.9402
-4.99896
0.664169
0.767288
-0.533194
-0.455822
24.668
17.845
-6.02946
-6.76051
-6.48344
-7.3271
24.3847
-1.96446
-2.63318
-2.00817
0.701647
0.667161
-3.04163
18.9275
18.7928
-0.761853
19.5935
-8.57003
-8.32484
-8.77212
0.488011
23.0499
-0.850762
-0.419325
23.4452
23.4821
2.01407
1.65359
7.87668
9.14229
17.4388
17.4194
23.3153
-7.70912
18.1697
18.1056
17.8845
17.9545
0.679147
-1.2645
-9.45987
-9.91578
-10.455
23.8878
23.8852
-5.83006
-6.03176
-5.97279
-10.1689
-8.08307
-12.828
-13.237
17.5631
-4.78164
-4.52595
24.0689
16.8331
17.2631
17.1704
16.7802
18.4586
18.5815
-1.61043
-2.55754
23.2558
-4.36464
-4.83476
-5.09923
1.62651
1.06455
23.0604
0.669844
21.8994
22.6708
-3.8047
-3.74061
-3.10439
-8.49502
-8.00301
14.903
14.2393
18.9347
18.697
17.9182
18.5421
18.4353
18.9405
19.4069
19.2162
18.9893
18.9485
17.2409
21.2647
22.5527
10.8945
-12.4319
-12.5913
-12.2285
23.627
21.3587
3.55406
3.28278
2.05443
2.14789
1.94373
20.3508
-11.0207
-3.65094
23.6581
-0.0368606
-4.97374
16.7463
16.3884
16.3724
-0.687887
22.2012
24.7038
-6.44779
-3.32692
-0.584136
19.347
19.4838
0.802289
-13.5574
-14.0146
22.0545
-5.18338
-10.0191
22.9068
-0.902324
-1.5134
3.35852
3.4493
-0.633327
20.5022
-16.9741
18.2891
21.5397
20.4088
20.013
0.641751
0.30388
18.8998
18.9444
18.6097
23.2839
23.2585
0.20668
-0.50436
0.926216
0.954991
3.64743
3.39669
24.4276
17.3046
17.4602
23.1436
23.1116
1.89078
1.76989
-5.05556
-3.18084
-3.10654
-0.221241
-0.571991
0.766019
0.583733
12.5765
0.800555
0.802704
-10.3491
-10.1476
17.2515
17.3182
-6.74189
-6.32538
0.424904
-18.0702
-17.3933
17.6822
17.4839
17.3924
17.3341
-6.1191
-6.47908
2.1186
2.00174
1.86387
1.49597
2.10371
2.35566
21.5291
21.5744
1.42815
1.66697
1.54069
22.413
21.4371
6.54367
7.50027
21.1791
17.1348
17.1051
16.9912
0.173759
-6.70104
-5.60365
23.4667
19.0642
18.9294
-10.2429
0.652706
22.1484
-1.59051
-1.47469
-3.70188
21.6784
21.8635
4.20497
4.31829
4.69821
4.70903
3.20206
3.12853
-3.31479
-3.36736
-0.146343
-0.359713
0.65413
0.615708
0.645573
4.70657
-8.3074
-1.93341
16.8637
17.1054
15.6166
16.5977
17.9642
18.279
18.2808
3.23031
3.13875
18.4126
-3.81031
-13.7181
19.9497
1.17749
1.26561
5.72303
0.802737
-0.347679
0.319647
0.501534
16.5581
16.7713
-0.722048
-10.6631
-10.0707
17.4687
2.72366
2.09152
-6.113
0.593068
0.643764
17.1851
-13.3043
0.435221
-1.5473
-0.444441
-0.261014
18.1478
18.0244
19.5101
18.94
17.8842
18.3062
4.50696
23.0858
16.8952
16.9702
16.9789
-6.96756
22.0349
-7.63114
-8.11025
-10.1224
1.69964
1.57444
1.85371
3.20534
-5.49992
-6.32037
2.49581
2.98612
2.76048
1.56529
1.29338
1.24619
0.0560399
-0.0619946
17.0766
16.9983
21.1929
21.336
21.2184
0.99125
0.91201
1.43049
1.51819
-13.0604
-0.686261
5.39224
6.3646
-5.95791
-6.06713
-9.23608
-9.68118
2.98287
2.93687
2.85644
8.85639
8.1704
9.52382
-0.277639
-0.320164
-0.135239
1.46899
1.77211
1.48876
16.1824
16.9182
2.50753
2.37757
2.11952
-10.5546
-10.2217
-10.598
1.48097
1.39886
-11.0035
-11.2473
-5.27641
-7.33629
-7.28121
17.5894
17.5342
-18.2386
-17.6093
17.5683
17.259
17.1841
2.99486
-2.84694
-0.3125
16.5937
23.9489
0.366507
23.1212
2.62163
2.69628
-9.86433
21.862
2.71172
1.37197
1.24438
2.93779
2.88046
16.8172
16.9838
0.651572
5.20722
5.06416
-5.12185
4.26859
4.01982
3.75945
0.163566
-0.233518
6.02889
3.46166
3.46544
5.17622
5.50789
0.985116
1.2904
18.6074
18.5579
2.78485
3.0478
-24.2505
3.82681
4.00262
-4.28304
-5.41925
3.27864
3.25194
5.42992
5.74036
4.10618
3.98588
-2.29499
-2.46894
-2.66529
18.3354
18.509
18.6145
17.3423
17.4921
21.6412
-1.51212
-1.40751
8.07457
-5.66727
-5.77894
1.25916
1.04284
-5.14705
-4.10508
-5.24657
-8.25603
-8.64699
1.41377
1.54971
-0.363052
-0.122776
17.8412
17.0501
-10.5683
-10.2822
-8.24233
-8.56805
-8.75879
-7.59647
-7.10283
-8.59385
21.3045
-5.06886
-4.80808
-4.90511
18.4375
18.4552
18.8397
16.2184
15.799
-0.705273
20.04
19.9917
16.7415
16.6683
0.892959
1.05955
1.14659
3.40771
2.95251
2.92824
16.5911
16.7812
21.6347
21.4543
18.3989
17.9919
18.0172
-3.22183
-3.7466
-6.5459
-14.4869
-14.1878
20.3675
20.3352
20.65
23.7098
3.97105
4.42726
4.91768
-0.316613
-0.272191
3.45366
17.848
18.4608
18.0135
18.5641
17.7069
16.877
17.5731
18.1721
1.197
1.17235
-5.78473
-5.22254
-5.70646
-3.27005
-2.99478
-22.1799
-2.30733
-2.52822
-9.21676
-1.91742
20.4845
20.5016
-3.90783
-3.53356
-3.53472
1.3216
1.25934
1.07867
1.09812
0.665773
19.2209
2.05902
2.49173
-0.194515
-0.0651044
-0.181285
-14.6444
-14.0961
-12.57
23.1345
22.9879
-16.0464
-15.4772
0.597615
1.22593
20.9653
21.06
20.4714
20.9959
-0.742369
-0.711313
-3.87988
-4.34974
-0.0825051
-0.341122
-0.61688
17.2456
17.2676
15.8669
0.779176
0.707893
0.741376
-2.95853
-4.67038
-4.50322
-5.33529
0.913992
1.86842
2.54976
2.07077
0.908552
0.815941
0.742988
3.92079
-0.951676
-0.702477
20.1344
8.04126
0.636068
19.9625
19.4843
-13.9453
21.5404
1.15648
-11.9459
-10.506
-8.2983
-11.5773
11.0677
7.19023
-1.81264
5.98064
-4.62969
-1.58272
9.63767
5.06411
-17.2405
8.35596
4.29772
-9.62079
5.98622
12.3041
11.6556
-7.80888
7.13438
5.32654
9.77558
-8.84045
-15.8017
10.2269
-12.1237
11.6558
6.51576
2.70644
-6.88167
-13.1945
10.9344
12.7299
6.48055
6.4561
6.43028
14.5807
9.52754
-0.880131
-1.76415
-1.9113
-21.565
10.3157
11.9119
11.4665
2.17325
3.02448
2.50609
3.30682
4.85684
9.95398
-14.2369
-14.5061
-7.50992
7.0237
-12.3739
1.61292
10.9277
-1.77288
-6.7068
10.9646
2.05418
-2.35017
-8.04523
11.3392
12.207
-30.6719
10.8244
-6.61633
-0.0340632
15.0813
6.78937
-10.034
21.1895
21.6024
-11.2637
-11.9399
6.65354
7.50498
7.51194
-7.01773
-0.150714
5.14051
2.31671
12.6839
9.52605
12.7752
-4.67567
-4.78618
10.3062
9.90685
10.5901
-19.3239
13.318
13.1952
-4.70044
-4.96715
2.83949
5.279
7.19362
7.70797
-13.5409
-14.7549
9.75785
10.5102
13.0473
13.3439
-0.0909112
0.940194
-15.4003
-16.3198
-0.305741
0.588953
-14.5153
-9.11201
-10.2371
8.18655
7.81463
-13.0073
9.51093
8.6978
4.54593
4.89837
5.64029
6.01069
-13.312
11.1255
8.48662
-1.02891
1.81281
-13.0318
7.86853
-15.0688
-1.58723
14.7245
-1.95898
1.92988
10.8507
6.37613
-0.247595
0.444471
-11.9362
-2.60096
13.3828
2.0993
1.18672
-1.34142
5.47105
-0.486846
-1.42916
7.97119
8.83892
8.5727
6.60445
16.3385
-3.49172
13.743
11.321
11.8295
1.74159
0.962901
15.749
15.9342
4.71726
-19.9873
-0.464751
0.360539
-10.9644
-11.0993
9.86255
9.85431
-8.82394
-9.35571
-10.3459
13.7871
14.0514
8.73886
-28.9187
9.19739
10.5399
10.703
-16.6359
-3.75858
6.8172
-17.7815
5.38632
-21.9758
-4.67962
-3.43597
2.7516
2.38243
-14.5898
-1.36393
5.61561
2.54709
1.93319
1.0716
1.78838
9.87376
12.7783
13.0026
15.8524
-2.19466
-2.99958
-12.8187
10.0815
5.41744
-15.2292
7.34195
7.33159
7.75749
1.29806
1.8932
10.5685
5.88022
6.05339
2.64205
2.89226
10.3867
9.6028
2.9987
3.75862
-4.90373
11.2747
10.8135
-14.6195
2.16369
2.27318
1.94719
2.33513
2.50669
2.39522
-13.0535
-2.68146
1.24104
2.36383
3.19726
5.13513
2.55666
2.21794
12.4588
12.1599
3.14988
-11.1017
12.1716
-15.153
-0.988059
-0.326641
12.2597
12.0358
9.51146
8.9877
-12.4728
6.25784
-4.74883
-4.69255
7.73878
8.47455
5.42084
-0.406088
-0.102525
0.45819
13.288
14.1326
8.69578
9.07145
10.1142
10.6659
10.4743
10.6498
5.03954
4.33733
-12.9183
-13.1029
-1.01696
-0.789906
-1.52681
-1.71553
21.1897
21.1587
21.4138
10.8366
10.5161
10.4662
5.53021
5.31137
11.0963
11.1505
11.2159
3.19244
2.24769
14.1231
13.2564
10.9466
10.7846
11.2624
11.5568
-11.8483
15.0519
15.1798
-0.634135
-1.8023
9.19922
8.94929
3.64154
4.23898
2.25736
2.96191
9.4062
6.33804
0.89544
-7.17856
-7.62364
-12.9743
1.82651
1.47519
2.1617
2.95108
8.29078
-9.59553
-10.4457
-9.44282
-1.97744
-0.19719
0.767985
15.0965
15.7492
3.20799
2.60815
11.5806
11.8393
-3.21332
-3.48546
13.7119
13.9201
2.30272
3.01953
9.90565
10.1208
10.3398
10.0688
8.71003
8.90809
-3.74464
-2.81833
11.2233
11.0488
-16.2146
-15.0638
22.03
8.8908
9.55913
9.76269
-8.74319
-9.45787
-1.72018
-1.54778
-4.83097
5.36358
5.37125
2.8402
2.26951
11.1254
11.3014
4.68829
-25.3114
-14.9983
5.81049
8.27825
11.7607
9.67727
-1.14834
4.31806
3.75879
9.45566
10.1065
13.8839
14.4356
13.9185
10.9197
10.3846
-12.8843
-4.0776
10.4679
10.6746
10.403
10.8687
3.69428
3.47082
3.17895
3.27972
1.78985
3.97944
3.16198
6.26469
5.39328