/*--------------------------------*- C++ -*----------------------------------*\
  =========                 |
  \\      /  F ield         | OpenFOAM: The Open Source CFD Toolbox
   \\    /   O peration     | Website:  https://openfoam.org
    \\  /    A nd           | Version:  6
     \\/     M anipulation  |
\*---------------------------------------------------------------------------*/
FoamFile
{
    version     2.0;
    format      ascii;
    class       surfaceScalarField;
    location    "1500";
    object      phi;
}
// * * * * * * * * * * * * * * * * * * * * * * * * * * * * * * * * * * * * * //

dimensions      [0 3 -1 0 0 0 0];

internalField   nonuniform List<scalar> 
44596
(
1.53644
-2.16255
0.626113
1.53644
1.44643
-1.44643
1.93757
-0.491135
-0.0937161
-2.14636
2.09938
-0.56294
1.30972
-1.30972
0.215907
1.8168
-2.21225
0.765819
-0.267228
2.30057
-0.799634
-1.20603
0.799634
1.29974
-0.560155
-1.3432
0.560155
0.749563
-0.593636
-0.82573
0.82573
-1.17061
1.38652
1.19423
0.637072
-1.83131
0.0431295
1.50309
-1.54622
1.42595
-1.42595
-0.147006
-1.67458
1.82159
1.54805
-0.0870597
-1.46099
1.12391
-1.12391
-1.10403
1.10403
1.12313
-1.12313
0.23861
1.24423
-1.48284
1.37183
-1.37183
1.46786
0.0801936
-1.31542
1.31542
0.267097
1.34938
-1.61648
-1.58208
1.58208
0.600979
0.582178
-1.18316
1.94135
-0.515404
-1.25364
-0.217693
1.47133
-1.4288
1.4288
0.706559
1.29325
-0.793349
1.49991
1.47158
-1.7669
0.295313
-1.62239
1.62239
1.05507
-0.816455
1.24551
-1.41604
0.170532
0.961503
-0.961503
1.20105
-1.34805
-2.30955
0.830876
-0.830876
1.00809
-1.09515
1.83897
-1.92603
-1.5867
-0.6137
-0.789772
-0.796925
-0.897802
0.897802
-1.03976
1.08289
1.98069
0.0634409
1.4873
-1.55074
-1.53503
0.135094
1.39993
-1.55074
-0.458165
0.00812361
-1.43692
0.113382
0.211385
0.259672
-1.81041
-1.50722
1.81041
0.529252
-1.20734
1.99711
-1.43692
-0.943046
-0.472998
-1.55877
1.55877
0.897037
-0.391365
-0.505673
-0.814179
0.415507
0.398672
0.703151
-0.113436
-0.589715
-0.00128994
-0.0919655
0.0932554
-0.059646
-0.0637656
0.123412
0.06131
1.44178
0.853804
-0.792494
-0.00282244
-1.45817
-1.20537
1.20255
-0.0392811
-0.00355903
0.0428401
0.124489
1.06974
-0.793253
0.555083
0.238171
-1.66088
-0.013705
-0.348895
0.927734
-0.578839
0.416735
0.594671
-1.01141
0.0481515
-0.881694
0.833543
0.00923763
0.066761
-0.0759987
-0.0357218
0.00977471
0.0259471
0.096395
-1.03149
0.935099
0.805319
0.636464
0.710406
-0.608807
-0.101599
1.24554
-0.142303
-1.10324
-0.163228
-1.09416
1.25739
1.53161
-1.69484
-0.0216519
-0.0140699
0.00505162
-0.0443328
-0.93428
-0.726597
-0.0371864
-0.897094
-1.07549
-0.00690792
0.0329259
-0.026018
-1.30911
-0.149059
-0.441333
-0.867776
0.0106034
-0.803857
-0.803576
-0.679367
-0.608251
-0.325451
0.933702
-1.19839
0.980699
0.000714028
-0.000714029
-1.10215
1.25382
-0.151668
0.251369
0.904878
-1.15625
0.819719
0.0686022
-0.888321
0.0163472
0.911387
0.913385
0.897682
-0.480682
0.897416
-0.886524
-0.318844
-1.1313
-0.307425
1.43872
-1.19776
0.259839
0.93792
0.53608
-0.852786
0.316705
1.05607
0.943831
-0.74417
0.753955
-0.00978473
-0.882156
1.05269
0.848548
-0.211476
0.253599
-1.18846
0.934856
-0.979493
-1.0284
-0.283268
0.986418
-0.897441
-1.41211
0.934627
0.308081
-1.24271
-0.00946703
-1.41648
1.14077
-0.205909
1.2225
0.7582
1.07594
0.923992
-0.631602
-1.29443
1.07294
0.171299
-1.1065
-0.880409
-1.85164
0.745144
-1.63695
-0.194358
1.1575
-0.734846
-0.422651
-0.102688
0.802206
-0.699517
-0.952378
0.084602
0.886808
0.116329
-1.05938
-1.3206
0.419871
-0.912733
0.492861
0.822836
-0.611451
-1.52418
-0.805641
0.332643
0.351856
0.715463
-0.77599
0.0605269
0.80872
-0.695338
0.0484588
-0.0392212
0.0382719
-0.0451798
-0.534903
1.02776
-1.23297
0.698065
-0.00119519
0.00119519
0.865491
-0.879108
0.0136174
0.130645
0.00074318
-0.000743168
0.000743177
-1.1002
1.1002
0.861768
0.802259
-0.671615
0.757162
-1.25345
0.496286
-0.72025
0.570108
0.150142
-0.00984387
0.396333
0.457471
-0.566175
-0.237401
-1.55151
1.49398
0.0575309
0.20809
-1.09025
1.53161
0.94639
1.38815
-1.46977
0.0816182
0.00150229
-0.00150228
0.000759127
-1.00442
0.890982
-0.859317
1.15993
-0.300608
0.817437
1.41842
1.29474
-0.712562
-0.638515
-0.372891
0.656225
2.35312
-0.981281
-0.145704
-0.923319
0.230644
-0.645449
0.414805
0.0614619
0.800306
0.285679
-0.875394
1.04282
-0.0621206
-1.18482
0.944821
-0.246756
-0.130671
0.794347
-0.112761
1.23662
-1.35868
1.35895
-0.00027056
-1.04189
-0.50433
-1.53303
-0.767208
0.383737
0.0475474
0.627846
-0.675394
1.20973
-0.153659
-0.148945
1.70531
-0.483548
-1.22176
-0.146335
0.757603
-0.405747
-0.627156
-0.225629
-1.40121
1.33804
1.96415
0.00401551
-0.00309194
-0.000923566
0.00146667
-0.00668945
0.00522277
-0.0281351
0.0283113
-0.000176201
0.0412352
-0.0202013
-0.0210339
-0.00469253
-0.00482235
0.00951488
-0.00965619
0.00496366
-0.056619
0.0121256
0.0444935
-0.0181145
-0.104997
0.123111
-0.00549146
-0.00549619
0.0109877
-0.0645102
0.0489036
0.0156066
-0.112456
0.073217
0.0392394
0.0565957
-0.00807493
-0.0485204
0.006326
-0.00539916
-0.000926833
-0.498144
0.323905
0.17424
0.0189732
0.00162089
-0.0205941
0.00692561
-0.00495525
-0.00197037
-0.00124786
0.00124784
0.00396383
-0.00945529
0.00743934
-0.00485885
-0.0025805
0.0211865
-0.0452152
0.0240286
-0.00764399
0.0057049
0.0019391
0.00373098
0.00319463
-0.0529658
0.00417598
0.0487898
0.0451481
-0.0470941
0.00194603
0.0114072
0.014484
-0.0258911
0.038205
-0.0267978
-0.0550994
0.0107118
0.0443876
-0.0386618
0.0565296
-0.0178678
0.00143059
-0.00143059
-0.00606524
-0.00687727
0.0129425
-0.0108876
-0.0487173
0.0535805
-0.00486212
-0.00806332
-0.0555265
0.0635899
-0.0368308
0.00821808
0.0286127
0.00352188
0.0160226
-0.0195445
-0.003335
-0.0170966
0.0204316
0.00264896
-0.00264893
0.0138537
-0.0385916
0.0247379
0.00466969
0.00669871
-0.0113684
0.0103354
-0.00178485
-0.00855059
-0.0108275
0.0857326
-0.0749051
0.0653923
-0.0762198
0.0517699
0.0222534
-0.0740233
0.0671457
-0.0153758
0.00724535
-0.00300813
-0.00423722
-0.00387768
0.0463603
-0.0424826
0.0615147
0.00921062
0.00976254
0.0189853
0.00598306
-0.0244448
0.0184617
-0.0198264
0.0196405
0.000185941
-0.00779158
-0.0120348
0.0563194
-0.0550186
-0.00130066
-0.0470887
-0.00868767
0.0557764
-0.00703561
0.00325556
0.00378005
0.00907303
-0.00679043
-0.0022826
-0.0111972
0.0359513
-0.0247542
-0.0474436
0.0393806
0.00915216
-0.00933652
0.00384649
-0.00679567
0.00294918
-0.017039
-0.0380604
-0.000996149
-0.00460427
0.00560042
-0.0216969
0.0139053
0.0120048
0.00329211
-0.0152969
0.0059847
-0.012862
-0.627099
0.301648
-0.0231973
0.0120002
-0.00280918
-0.00125071
0.00405989
0.0233668
-0.0231459
-0.000220892
0.00848993
0.0148768
-0.0119066
-0.0112907
0.00432004
-0.0162267
0.00734227
-0.0186329
0.00591176
-0.00773056
0.00181879
-0.00225258
-0.00384476
0.00609733
0.000560715
0.00969683
-0.0102575
0.0480348
-0.037323
0.00937301
-0.05194
0.0276148
0.0243252
-0.015993
0.0198624
-0.00386937
-0.00326459
0.0162071
0.0113153
-0.00907215
-0.00224318
0.0449407
-0.0355677
0.0467929
-0.0018522
-0.0465599
0.0109922
0.0578001
-0.675751
0.617951
0.00523724
0.00383578
-0.00321128
-0.00382432
0.063225
-0.34113
0.277905
0.17213
-0.502197
0.330067
-0.000423961
-0.0061626
0.00658656
-0.00320627
0.00627129
-0.00306502
0.0263806
-0.0178907
-0.0108413
0.0312538
-0.0204125
-0.0283223
0.0111229
0.0171994
-0.0184098
0.0287763
-0.0103664
-0.0467321
0.0398992
-0.0062623
-0.00462529
-0.0175088
0.0248511
-0.0061641
0.00763076
-0.00515124
0.00677213
0.0144029
-0.0348536
0.0492097
-0.0143561
-0.0550659
0.0202123
-0.00204236
0.021007
-0.0189646
0.00617483
-0.0192174
0.0130425
-0.0625386
-0.0499177
0.262032
-0.585981
0.323949
0.00127622
0.0519775
-0.0532535
0.0575957
0.0439028
-0.372222
-0.125922
-0.0118768
-0.00871721
0.00761989
0.011341
-0.0189609
-0.142698
0.202522
-0.0598247
-0.0011628
0.0011628
0.0909636
-0.034189
-0.0567746
-0.00557498
0.00850395
-0.00292897
-0.050349
-0.0277705
0.0781196
0.00857224
0.00583065
0.0115785
-0.00662932
-0.00494918
0.00680277
0.0128377
0.0129776
0.00258501
0.0102527
0.1852
0.118776
-0.303975
0.0197721
0.00613678
-0.0259089
0.00187983
-0.0137567
0.464295
0.124741
-0.589036
-0.74834
-0.133354
-0.0043032
-0.0216057
0.0367237
-0.00379778
0.0324205
0.0274938
-0.0222835
-0.00521038
0.0128861
-0.0389042
-0.00766773
0.00140543
-0.00859434
0.000926609
-0.386727
0.482752
-0.0960243
-0.506759
0.496975
0.023053
0.0334766
0.0402524
0.0484429
0.0116651
-0.0601079
-0.0505276
0.0401611
-0.00131792
0.041044
-0.000882881
-0.00716403
0.0491294
-0.0419654
-0.0542528
-0.00585992
0.00422564
0.00163428
-0.0765649
0.0262159
-0.00756099
0.052709
0.0109475
0.00757814
-0.0185257
-0.00890517
-0.0142407
-0.00666257
-0.635363
0.497027
0.138336
-0.0373862
0.0269751
0.0104111
0.000818756
-0.0249649
0.241514
0.236228
-0.477742
0.340553
-0.0990392
0.552933
-0.00806498
-0.00100718
0.00161663
0.00972439
-0.00644834
0.0307728
-0.0320627
0.0337374
-0.0286858
-0.0607486
0.328617
-0.155307
-0.173309
0.00496082
0.0050274
-0.00998823
-0.00605481
0.00907799
-0.00302318
-0.00629428
-0.0137013
0.0199956
0.00942187
-0.0157161
-0.0116742
0.00522586
0.00111115
-0.0127853
0.0112791
-0.00605326
0.0292265
0.022438
-0.0516646
0.0319611
-0.00137809
-0.030583
-0.0113387
-0.0494099
0.0373208
0.000951027
0.0259821
0.00896902
-0.00138668
-0.00758233
0.00268978
0.00627924
-0.0246408
-0.0211844
0.0458252
0.0142297
0.0188146
-0.0330443
-0.00236975
0.00353208
-0.00673834
-0.00575929
-0.0472065
0.0460765
-0.0248899
0.00577832
-0.00824425
0.00246593
-0.00784033
0.00642222
0.00141811
-0.0261419
0.012072
-0.00627864
0.0322608
0.014634
-0.0169181
0.00228414
0.0206187
-0.0190623
0.92394
0.210361
0.591898
-0.441005
-0.186151
-0.010118
-0.00680013
0.00520923
-0.0153273
0.00856341
-0.0153635
-0.0495102
0.0110861
0.0384241
0.000606602
-0.056767
0.0561603
0.00881254
0.0205891
-0.0294017
-0.0232965
-0.00974784
0.0403178
0.0088116
-0.0106677
-0.0364264
0.0296501
0.00751489
-0.00184023
-0.00567466
0.00624525
0.00126964
-0.0072406
0.00540037
0.0198912
-0.0163693
-0.530489
0.591016
-0.512331
0.593801
-0.0814697
-0.00425978
-0.00736741
0.0116272
0.0257646
-0.0854107
0.032445
-0.0185912
0.00430984
0.0282017
0.0121563
0.00846242
0.0172741
-0.00511779
-0.0146939
0.0231563
0.0780473
-0.068197
-0.00984976
0.00323759
-0.0196156
0.016378
0.0207643
-0.0078782
0.0240019
0.324994
-0.338004
0.0130099
0.00215991
0.00941859
-0.0080996
-0.000494743
-0.00593969
0.00892385
0.49815
0.946619
-1.44477
-0.000781119
0.000781091
-0.570234
-0.0680447
0.638279
-0.819446
1.3176
-0.00128119
8.60016e-05
0.467617
-0.409817
-1.06529
1.06529
0.130606
0.945337
-0.885516
0.654203
0.231313
-0.407373
-0.478144
1.23896
-0.260527
-0.978429
0.111037
-0.0554424
-0.0555951
-0.528207
-0.107156
-0.103598
-0.424609
-0.83573
0.932125
0.185246
0.312681
-0.497927
0.370446
0.0437569
0.648183
-0.69194
0.482959
-0.439202
0.0651216
-0.016678
0.602078
-0.62114
0.536661
0.0654163
0.136346
-0.110581
0.484256
-0.235742
-0.248514
0.196854
0.287402
0.00361252
-0.00391429
0.000301763
-1.01618
-0.14489
0.577072
-0.432181
-0.000554189
0.000554177
0.399848
-0.94467
0.544821
-0.554356
0.601904
-0.308782
0.594461
0.081206
0.0551401
-0.607703
-0.218968
0.826671
-0.0566099
-0.0218114
0.0784218
0.00851235
-0.157058
0.00894524
0.148113
0.644359
-0.700538
0.0928348
-0.327732
-0.372806
-0.691986
0.364254
-0.918485
0.0461741
-0.99697
0.750214
-0.163427
-0.440257
-0.235494
-0.63773
0.412101
-0.130125
0.352627
-0.898033
0.506668
-0.610066
-0.287966
0.000577073
-0.000577076
0.00110617
-0.00384864
0.00274247
1.03558
-0.148775
-0.0114639
-0.671079
0.682543
0.944365
-0.617388
-0.326977
0.334298
0.21945
-0.700131
0.661397
-0.0877451
-0.573652
0.880802
0.738499
-0.314641
0.714489
0.0298253
0.073728
0.0182015
-0.186591
0.227185
-0.0405936
0.219761
0.424599
-1.15283
1.15283
-0.490747
-0.201239
-0.758141
-0.273353
0.838648
-0.331981
0.0805077
0.273539
0.194079
-0.00393592
0.00227685
0.00165907
0.79324
-0.531208
0.302493
-0.0252045
-0.0889701
-0.00854037
0.00260068
0.812447
-0.957337
-0.455405
2.01417
1.03857
-0.541964
0.359886
0.182078
-0.268425
-0.325446
-0.332615
0.658061
0.0364884
0.247249
-1.5007
0.861513
-0.614264
-0.0828631
-0.255278
0.338141
-0.269454
1.20165
-0.0590818
0.0420428
-0.0368284
-0.624172
-0.211558
1.07444
0.248728
-0.578891
0.330163
-0.82981
-0.581082
-0.801786
0.25519
-1.05698
-0.00967762
-0.0130231
0.0541226
0.0636518
-0.94276
0.711834
-0.000384975
0.000962043
1.2225
-0.682838
1.90533
0.225358
1.03828
-0.812926
0.934686
-0.925491
-0.0906884
-0.290499
-0.288392
0.643203
-0.018859
0.00416506
-0.0165748
-0.0275973
0.0110225
0.111014
-0.647675
0.723151
-0.0754763
0.298543
-0.606044
0.985653
-0.379608
-0.0289726
0.783474
1.04667
-1.19301
0.00625029
-0.630478
0.266939
-0.142455
-0.00357281
0.0267291
0.0433986
0.183786
-0.0671828
1.27101
0.211017
0.848358
0.0443933
-0.0530809
-0.0106253
0.0101665
-0.0991366
-0.0752442
-0.142427
-0.0227418
-0.061963
0.41904
-0.494516
0.51017
-0.0911298
0.34937
0.160799
0.422501
-1.34163
0.158273
0.0402198
-0.48737
-0.158079
-0.44715
0.577208
0.0407437
-0.446669
0.28859
-0.0981796
-0.348489
-0.353457
1.13959
0.130189
0.826824
-0.696635
0.566297
-0.000546366
-0.000234763
0.00471869
-0.780814
-0.456909
-0.590263
0.0223881
1.39466
0.711826
-0.757947
-0.00781591
0.00938039
-0.00156448
0.00286502
-0.0106809
0.0013643
0.00470624
-0.00607054
-0.0057676
-0.00716168
0.0129293
-0.151186
0.264921
-0.113735
0.00516336
-0.00433739
-0.000825972
0.00746504
-0.00186992
-0.00559511
-0.00624591
0.00386433
0.00238158
-0.00454199
0.00402868
0.000513314
-0.0143417
0.0143044
3.73475e-05
0.0114925
-0.00238524
-0.00910722
0.00267392
0.00881854
-0.0169999
0.00521319
0.0117868
0.00694285
-0.00265981
-0.00428303
0.00277488
0.00416797
-0.013348
0.00489165
0.00845631
0.00550073
-0.0188487
-0.00354285
-0.00438405
0.0079269
-0.00858633
-0.00159682
0.0101831
0.00202002
0.00803939
-0.0100594
0.00441769
0.00223038
-0.00664807
0.00478914
-0.00795133
0.00316219
0.00858137
-0.00955979
0.000978412
0.00181986
0.00676152
-0.00789733
0.00526141
0.00263592
-0.00510497
-0.00279236
0.00246953
-0.00714172
0.00467219
-0.00159751
0.00995172
-0.0083542
-0.00230175
0.00413606
-0.0018343
-0.00328091
0.00197986
0.00130105
-0.00340615
-0.00290849
0.00631464
0.00487317
-0.00827933
-0.00291923
0.0101761
-0.00725686
-0.00752953
0.00224501
0.00528452
-0.00164875
-0.00588078
0.00295119
-0.00699446
0.00404327
0.00202209
0.00433253
-0.00635462
0.00756035
-0.0076822
0.000121852
0.00325707
-0.00277153
-0.000485541
0.00368124
0.00318977
-0.00687101
0.00372042
-0.00495919
0.00123878
-0.00649245
0.0029496
0.00754511
0.000524625
-0.00806973
0.00425067
0.00329444
0.00348198
0.00769543
-0.0111774
0.0085255
-0.00995693
0.00143142
0.0108272
-0.00116519
-0.00966205
-0.00921622
0.000464827
0.00875139
-0.00835492
-0.000784822
0.00913974
-0.00441427
0.0068838
0.00802846
-0.0116992
0.00367071
-0.013224
-0.00111777
-0.00714641
-0.00607756
-0.0247308
0.0199201
0.00481075
-0.0071998
-0.3333
0.340499
-0.00894499
0.00453797
0.00440702
-0.00596106
0.00742346
-0.0014624
0.185054
-0.192253
-0.00473881
-0.00537801
0.0101168
-0.00968309
0.00163387
0.00804922
-0.00251403
-0.00716906
0.0199452
-0.0055461
-0.0143991
-0.0077023
0.0276475
0.00801084
-0.00230488
-0.00570595
0.00304633
0.00496451
-0.00713301
0.0112808
-0.00414778
0.0055196
-0.00814853
0.00262892
0.0085297
-0.00575482
-0.00115461
0.0117927
-0.0106381
0.00473097
-0.0061344
0.00140343
0.00976668
-0.0129797
0.00321301
0.0087262
-0.00872622
0.00221222
0.0156917
-0.017904
-0.0103091
0.00553788
0.00477124
-0.00923468
0.00330014
0.00593454
0.00847764
-0.00847765
0.0081266
-0.0081266
0.000664657
0.00778753
-0.00845219
0.0290768
-0.0124748
-0.0166019
-0.00406085
-0.00615335
0.0102142
0.00633638
-0.00578329
-0.000553024
-0.0222757
0.006006
0.0162697
0.0107474
-0.0330232
0.00361123
0.00476289
-0.00837412
0.00469871
0.00162729
-0.00260854
-0.00463205
-0.00345563
0.0154604
-0.00417993
-0.00544829
0.00962822
0.00545847
-0.00328327
-0.0021752
-0.0054081
-0.00195206
0.00736016
-0.0115448
0.00465066
0.00689417
-0.0112602
0.00747485
0.00378532
-0.0043937
0.00708
-0.00268629
0.000315256
-0.00470896
0.0127797
-0.0101466
-0.00263314
0.0102064
0.00146679
-0.0116732
-0.00872279
-0.00117078
0.00989357
-0.00512492
-0.00359787
-0.00170767
-0.00705597
0.00876364
0.00215398
-0.00691278
0.0047588
-0.00043812
0.00604994
-0.00561182
-0.000963027
0.00593594
-0.00497291
-0.00398608
-0.00417389
0.00815997
0.00909819
-0.00466276
-0.00443543
-0.0121289
-0.00256649
0.0146954
0.0125478
-0.00668382
-0.00586398
0.00535196
0.00652157
-0.0118735
-0.0069475
0.00700349
-5.59931e-05
-0.00622475
0.00689379
-0.000669037
-0.00761222
0.011844
-0.00423179
0.00721909
-0.000166184
-0.00705291
0.00813763
0.000240378
-0.00837801
0.00961722
-0.00280975
-0.00680747
0.00172188
-0.00698141
0.00525953
0.00204286
-0.00712201
0.00507915
0.00577384
-0.00162446
0.00660706
-0.0049826
-0.00794526
0.000870012
0.00707525
-0.0184231
0.026396
-0.00797286
0.00180592
-0.00539916
0.00359324
0.0032031
0.00492329
-0.00812639
-0.00694812
-0.00420006
0.0111482
0.00319413
-0.0101422
0.0060636
-0.000401138
-0.00566247
0.00823784
-0.00217423
0.0188656
0.0102112
0.00493564
0.00416522
-0.00910087
0.0107798
-0.0104079
-0.000371943
0.00998054
-0.00998054
0.00593601
0.00357191
-0.00950792
-0.00559609
-0.00199049
0.00758658
0.0145273
0.0245853
-0.0391126
-0.00290678
0.00832897
-0.0054222
0.00147541
0.00642258
-0.00789799
0.0160625
-0.0135662
-0.0024963
-0.0045476
0.00124141
0.00330619
0.00814352
0.00286466
-0.0110082
-0.00301734
0.00654155
-0.00352421
0.0071621
0.00509188
-0.012254
0.00110781
0.00625372
-0.00736153
-0.00292601
-0.00634005
0.00926606
0.000552331
0.00679042
-0.00734275
-0.0276297
0.0451399
-0.0175102
0.0344751
-0.0621048
-0.00868365
0.00163149
0.00705216
-0.00463462
-0.00404903
-0.00917999
-0.00222055
0.0114005
0.00829963
-0.00465761
-0.00364202
-0.0116578
0.00658994
0.00506784
-0.00719574
0.0107607
-0.00356493
0.00157382
-0.00722366
0.00564984
-0.00312123
-0.00300456
0.00612579
-0.00848062
0.00138177
0.00709885
0.00147332
0.00192717
-0.00340049
-0.0030737
-0.00146829
-0.00225114
-0.00612185
0.00837299
0.00975306
-0.00872357
-0.00102949
0.0094846
-0.0111923
0.0110297
-0.00833991
0.000513611
0.00444968
-0.00496329
0.00611793
-0.00560432
-0.0266515
0.0345994
-0.00794798
-0.0207818
-0.00586969
0.00226554
0.00585649
-0.00812203
-0.00912764
0.00920666
-7.90191e-05
-0.00535094
-0.0037767
0.0106473
-0.00725577
-0.00339158
0.00667044
-0.0117754
0.00100079
-0.00822842
0.00722764
-0.00407484
0.00755682
0.00624665
-0.0103215
-0.00833544
-0.00478211
0.0131176
-0.00725703
-0.00400564
0.0112627
-0.0125917
0.00553574
-0.00782276
0.00383667
0.0014644
0.00408143
-0.00554584
0.00509587
-0.00562124
0.000525377
0.00298571
0.00211016
-0.00110036
0.00814422
-0.00704386
0.00563356
-0.0072823
0.0272752
-0.000688868
-0.0265863
0.0432478
-0.0159726
-0.0325539
-0.0060377
0.0101733
-0.00888445
-0.00128882
0.00724727
0.0078981
-0.00562916
-0.00226894
0.00165219
-0.0100695
0.00444032
0.00149856
-0.0174915
0.00571401
0.00332417
-0.00903818
-0.00797011
0.00938889
-0.00141879
-0.00618195
-0.00151248
0.00769443
0.00336296
0.00679333
-0.0101563
0.00669161
-0.00540392
-0.00128769
0.00361678
0.00229889
-0.00591568
-0.0208864
-0.0282338
0.0491201
0.00696982
-0.0098766
-0.00555035
0.0112662
-0.00571581
-0.00827895
0.00184377
0.00643519
-0.000334271
-0.00950184
0.00983611
0.0101106
0.00101669
-0.0111272
0.00384827
0.00345452
-0.00730279
0.00789152
-0.0105126
0.00262111
0.00656118
0.000706686
-0.00726787
0.130464
-0.0479492
-0.0825151
0.000110436
0.00950679
0.00824807
0.0112874
0.00480267
-0.01609
-0.00562413
0.011816
-0.0061919
0.00200304
0.0059899
-0.00799294
-0.00803616
0.00338884
0.00464732
-0.000913653
-0.00603384
-0.00861389
0.0184786
-0.00986473
-0.00337293
-0.00515171
0.00852465
-0.00210428
0.0105443
-0.00843998
0.00476879
0.00798681
-0.0127556
0.00840216
-0.00947002
0.00106787
0.0106651
-0.00799121
0.0101334
-0.00698155
-0.00315189
0.00271934
-0.00971675
0.00699741
-0.00441944
0.00713878
0.000584577
0.00668368
-0.00726826
0.010603
-0.00583423
0.00528056
0.00441674
-0.0096973
0.00586237
0.00253978
-0.00385157
0.00971394
0.0105266
-0.00674923
0.00979555
0.00730199
-0.0043508
-0.00170494
0.00886704
-0.0107387
0.00781944
-0.0214386
0.00517673
0.0162618
-0.0136272
-0.00781137
-0.0109946
0.00827851
0.00271606
-0.0101311
-0.00086348
0.000184704
0.00532517
-0.00550987
0.00211062
-0.00688738
0.00477676
0.0314863
0.0199039
-0.0513903
-0.031036
-0.0174843
0.000450339
0.00251157
0.0032213
-0.00573287
0.00469546
0.000467905
-0.004043
0.0126172
-0.00857423
0.00162483
-0.00738857
0.00576374
-0.0109403
0.00702404
0.0039163
-0.00686321
0.00244224
0.00442097
-0.00585081
0.00723705
-0.00138624
0.00434291
0.0135028
-0.0178457
0.00984364
0.00572828
0.00777452
-0.00608664
0.0108916
-0.00480495
-0.00779542
-0.00328469
0.0110801
-0.00433528
-0.00447876
0.00881404
-0.00205988
-0.0065063
0.00856619
0.00190754
-0.00883784
0.0069303
0.00772657
-0.0105363
0.0173164
-0.00561486
-0.0117015
0.00998412
0.00525634
-0.0152405
0.00928671
-0.0362965
0.0270098
0.00119741
-0.00978521
0.0085878
-0.0054424
0.0115136
-0.00607124
0.00955756
-0.0011367
-0.00842085
-0.00120127
-0.00841974
0.00962101
0.0092387
-0.007852
-0.00138671
0.000883779
0.000933278
0.00281295
-0.00374623
0.0140723
-0.00408815
0.00648199
0.00759027
0.0132282
0.00168299
-0.00675637
0.00507338
-0.00631026
0.00706262
-0.000752363
-0.00202933
-0.00428093
-0.000428362
-0.00882441
0.00925277
0.00969524
-0.0044389
-0.00169516
-0.0102259
0.011921
-0.0104087
0.00871359
-0.00511638
0.00952353
-0.00440715
-0.00678485
-0.0029729
0.00975775
-0.0174363
0.0121001
0.00533622
0.0109675
-0.0143046
0.00333705
-0.0389858
-0.0176331
0.07488
0.0555844
0.0113514
-0.00283032
-0.00852103
0.0187153
-0.0127323
0.00937286
0.00922993
-0.0186028
0.0103473
-0.00808176
0.00210918
0.00823813
-0.00674489
0.00885406
-0.0047973
-0.00711915
0.0119165
-0.00353443
-0.00307799
0.00661242
-0.0373905
0.0207578
0.0166326
0.0321676
-0.0292913
-0.00287635
-0.00183253
-0.00205996
0.00389249
-0.0357643
0.023403
0.0123613
0.0062258
-0.0275287
0.0213029
0.000242727
-0.0112814
0.0110387
0.00162302
-0.0120876
0.0104645
-0.0139914
0.00678585
0.00720555
-0.00412581
0.00742508
-0.00329927
-0.00545378
0.0108057
0.00709401
-0.00215024
0.00668492
-0.00453468
0.00243742
0.00364144
-0.00607886
-0.00729928
-0.00188188
0.00918116
0.00355447
-0.00643038
0.00287591
-0.00198563
0.0125568
-0.0105712
0.0070257
0.00739001
-0.0144157
-0.00217546
-0.00810139
0.0102768
0.00543073
-0.00966035
0.00422962
0.00535024
-0.00465168
-0.000698552
-0.00192586
-0.00486456
0.00342437
-0.00594714
0.00550902
-0.00803988
0.00761152
-0.00816776
0.000941939
0.00722582
-0.00856989
0.00915043
-0.000580536
-0.00666235
-0.00382699
-0.00876472
-0.011084
-0.00276793
-0.00745793
-0.0103801
-0.00126298
-0.00619495
0.0053441
-0.0070146
0.0016705
0.00745472
0.000700212
-0.0050376
0.00867838
-0.00894936
0.000270982
0.00202238
0.00665601
-0.0118344
0.00313989
0.0086945
-0.00587907
-0.00549217
0.0113712
-0.0215971
0.0123543
0.00924277
-0.0143438
-0.00725329
-0.00415705
0.0107173
-0.00656022
0.00497215
0.00663474
-0.0116069
0.00165417
-0.00861066
0.00695649
0.0277379
0.00821338
0.0339637
0.142617
-0.238641
-0.190683
-0.00194013
-0.00655685
0.00849698
-0.00597236
0.00403223
-0.00596046
0.0118495
-0.00588905
-0.00183524
0.00368457
-0.00184934
0.0172484
-0.0139472
-0.00330119
0.000797979
-0.00575323
-0.00808103
-0.0345954
0.0426764
0.0333867
-0.0414677
0.0111953
-0.0202727
0.00907738
0.00515694
0.00583857
-0.0109955
0.0193249
-0.0119416
-0.00738333
-0.010487
0.0172888
-0.00680186
-0.0123188
0.0267958
-0.0144769
0.0159925
0.032303
-0.00550728
0.00394782
0.00407236
-0.00802018
0.0188182
0.0224169
0.0395348
-0.0212967
-0.0182381
0.00919997
-0.0112847
0.00208476
-0.0087153
0.00970699
-0.00099169
-0.0250211
-0.00250761
-0.013021
-0.0196508
0.0171432
0.0169188
-0.0138322
-0.00308669
-0.0285211
-0.0349073
0.0634284
-0.0631773
0.0371084
0.0260689
0.0164135
0.00025673
-0.0166703
-0.00764128
0.00416428
0.00347699
0.00295336
-0.00489677
0.00194341
0.00298446
0.00244446
-0.00542892
0.00593782
0.00556715
-0.00134472
-0.00422242
0.00348603
-0.00444906
-0.00337718
0.00397501
-0.00750441
0.0035294
0.00723057
-0.0100896
0.00888141
0.00120816
-0.00622326
-0.00386632
-0.00256176
-0.00645786
0.00901962
0.000729719
0.0082822
-0.00901192
0.00939642
-0.0086667
-0.0017842
0.0112688
0.00924549
0.000172938
0.00506259
-0.00523553
-0.00440648
0.00457942
0.0119608
0.00270749
-0.0146683
-0.00425851
-0.0141646
-0.0114571
-0.00200501
-0.00750301
0.00950802
0.00571527
-0.00772028
-0.00122187
-0.00628114
0.00142659
-0.0105815
0.00915495
0.00418461
0.00567268
-0.00985729
0.00998929
-0.00455856
-0.00394241
0.00418625
-0.000243841
0.00974478
-0.00424282
-0.00550195
-0.00747659
0.00747659
-0.0158382
-0.0224162
0.0382544
-0.00769107
0.00708344
0.000607631
-0.00409229
-0.00188008
0.0261966
0.00338744
-0.029584
0.0131912
0.0130054
-0.0221069
0.0254943
0.00619024
-0.00409394
-0.0020963
-0.0016812
-0.00515541
0.00683662
0.00450904
-0.00768117
-0.00386367
0.0108024
0.00611643
-0.00105974
0.0118622
-0.00913312
0.0152496
0.0107044
0.00057003
-0.0112744
0.00531573
0.00538868
-0.0137544
0.0143244
-0.00537117
0.006996
0.00547955
0.00537733
-0.0108569
-0.00578062
-0.00377034
0.00948435
-0.00177574
0.00430698
-0.00253124
0.0029284
-0.0067216
0.0037932
0.0160641
0.00143769
-0.0175018
0.0036855
-0.0113107
0.00762517
-0.00336843
-0.00324661
0.00661504
-0.00607848
0.00593657
0.000141918
-0.0489221
0.0674737
-0.0185516
0.00576289
-0.00982374
0.00919039
-0.00284655
-0.00634384
0.00139496
0.049365
-0.0414026
-0.00796239
0.00383178
0.00237622
-0.00620801
0.00544153
-0.00160974
0.00647004
-0.00409381
0.00859029
-0.0222175
-0.0449734
0.0262163
0.0187571
0.0380882
-0.0151523
-0.0229359
-0.0207917
0.0235686
-0.00277687
0.0201521
-0.000293967
-0.0198581
0.00891228
0.00539212
0.0105353
-0.00714014
0.0125323
-0.027178
0.0123584
0.0148195
0.00861902
-0.00943202
0.000812996
0.00339158
0.00522745
-0.00644085
-0.00387772
0.0103186
0.00548016
0.00577259
-0.00962416
-0.00223182
-0.005657
0.00788882
-0.00950684
0.00482565
0.00468119
-0.0117387
0.00275547
-0.010657
0.00790152
-0.00942895
0.00713409
0.00229486
-0.00667348
0.0040231
-0.00668267
0.00265956
0.00250548
-0.0101851
0.00767967
-0.00349596
0.00349596
-0.00117682
0.00778075
-0.00660393
0.00244944
0.00583471
-0.00828416
0.0190362
0.0204985
0.00164827
0.00867572
-0.010324
-0.00333804
0.00333805
0.00395292
0.00348643
-0.00221482
0.00616773
-0.00897998
0.0104066
0.000956918
-0.00617335
0.00521643
0.00615838
-0.00128138
-0.00487701
0.0071153
0.00370872
0.00326725
-0.00697597
-0.00328849
0.00689382
-0.00360533
-0.00564046
0.00578192
-0.000141465
0.00609022
-8.38362e-05
-0.00600638
-0.00645748
-0.00533992
0.0117974
-0.0106575
0.0017572
0.00474662
-0.00650383
-0.00960622
0.0225711
-0.0129649
0.00147711
0.00671858
-0.00819569
0.00794646
-0.00646935
0.00259114
-0.00259115
0.00784282
0.00305815
-0.010901
0.00362544
0.00421738
-0.0045662
0.00762435
0.00999683
-0.00797445
0.00212743
0.00798312
0.0101559
0.00764884
0.00991106
-0.00636393
-0.00354714
0.000743259
-0.00894136
0.00819809
0.00855318
-0.00780992
-0.00142983
0.0077036
-0.00627377
0.00490911
-0.00633894
0.00492374
0.00106858
-0.00599231
0.0184298
-0.0159543
-0.00247548
-0.00794279
0.0198176
-0.0118748
0.0283391
-0.0109461
-0.017393
0.0264267
0.00191246
0.0213569
-0.00866724
0.0019778
-0.000144564
0.00736711
-0.00722255
0.00651719
-0.0064996
-1.75835e-05
0.0110757
-0.00778356
0.00241845
-0.0107539
0.0134941
0.00247636
-0.00247636
0.00471607
-0.00560815
0.000892077
-0.00677489
0.00892887
0.00837486
-0.0108889
0.0227746
-0.00824722
0.00680946
-0.0242025
-0.0324497
0.00922073
-0.00264194
-0.00657878
0.00247584
-0.00915193
-0.00027598
0.00942791
-0.0097251
0.00993214
-0.000207042
0.031632
0.00184457
-0.00527602
0.00527603
-0.00577457
0.00608983
-0.00658181
0.00495734
-0.0330826
-0.00219519
0.0352778
-0.0128556
-0.020227
0.0338328
-0.036028
0.00593461
-0.00593462
-0.018379
-0.00812639
0.0265054
-0.0252897
0.0165699
0.00871976
0.00174326
-0.00174326
0.00347822
-0.00347822
0.00580245
-0.000929283
0.00340403
0.00269553
-0.00609957
0.00486844
0.00450145
0.00557383
0.0020146
-0.00758843
0.00162938
0.00575505
-0.00738442
0.00121346
0.00693753
-0.00815099
-0.0388432
0.0204642
0.00379462
0.00343309
-0.00722771
0.00606812
-0.00722947
0.00116135
-0.00397118
0.00652756
-0.00255637
0.00209694
0.007107
-0.00604466
-0.00106234
0.00332716
0.00377984
-0.00678029
0.000223445
-0.00241991
0.00241991
-0.0229837
0.0411275
-0.0181438
-0.0348897
0.0111567
0.0237331
-0.0311219
-0.00376779
0.0378209
-0.0266643
0.00649572
-0.00184506
0.00108763
-0.00755618
-0.00422021
0.0117764
-0.0115992
0.00866136
-0.0128816
0.0209544
-0.0149418
-0.00601256
-0.000742452
-0.0322479
0.0173061
0.00747624
-0.00385946
-0.00255359
0.00255359
0.00827791
-0.015418
-0.00997284
-0.0026302
0.012603
0.0263547
-0.0330648
0.00671018
-0.0106069
0.0369615
-0.00258
0.00877168
-0.00619168
-0.0100371
0.00745709
-0.00365124
0.0071775
-0.00352626
0.00369228
-0.00596977
0.00227749
-0.0122197
0.0124625
-0.00760151
0.00155685
-0.0026924
-0.00692377
0.00123245
0.00797512
-0.00920757
0.0074866
-0.00625415
-0.0161847
0.0179236
-0.00173891
0.00679428
-0.0160198
0.00922553
0.00727801
-0.0101246
-0.00235867
0.00235867
0.00122413
-0.00122413
0.0167443
-0.0139303
-0.002814
0.00750161
-0.00575762
-0.00174399
0.00828447
-0.000782863
-0.00790213
0.00174878
-0.00372948
-0.00417265
-0.00727981
0.00391138
-0.00420023
-0.00753843
-0.00955117
-5.68802e-05
-0.00457757
0.00463445
-0.037359
0.0162663
0.0210927
-0.0273303
-0.00843405
0.000695757
-0.00654657
0.00658434
-0.000494119
-0.00355211
-0.00549019
0.0090423
0.00411721
0.0101704
-0.0142876
0.00750624
0.00319303
-0.0106993
0.00383221
-0.00615223
0.00232003
-0.000801168
0.00463338
-0.00296717
0.00763686
0.00736828
-0.000419895
0.0152331
-0.0148132
-0.0166046
-0.00194627
0.00194627
0.000241098
-0.00218738
-0.0137102
0.00809533
-0.00542829
0.00659235
-0.00116406
-0.000203587
-0.00522471
0.00185379
-0.00185379
0.000165832
-0.00560951
0.00544368
-0.00440113
0.0069127
0.00693646
-0.00735976