/*--------------------------------*- C++ -*----------------------------------*\
  =========                 |
  \\      /  F ield         | OpenFOAM: The Open Source CFD Toolbox
   \\    /   O peration     | Website:  https://openfoam.org
    \\  /    A nd           | Version:  6
     \\/     M anipulation  |
\*---------------------------------------------------------------------------*/
FoamFile
{
    version     2.0;
    format      ascii;
    class       volVectorField;
    location    "1500";
    object      U;
}
// * * * * * * * * * * * * * * * * * * * * * * * * * * * * * * * * * * * * * //

dimensions      [0 1 -1 0 0 0 0];

internalField   nonuniform List<vector> 
29874
(
(7.52503 0.0626757 1.07819e-16)
(5.38783 0.0281823 -9.96741e-17)
(5.42402 -0.121062 2.01338e-16)
(7.10983 -0.0800713 -1.19788e-16)
(7.80485 -0.118734 0)
(7.4246 0.00422646 -9.67049e-17)
(4.77444 0.094531 6.63368e-18)
(7.1241 0.0172232 1.99865e-18)
(7.44885 -0.00413536 -1.38249e-17)
(7.19173 0.211795 -1.6188e-17)
(7.20099 -0.115761 0)
(7.23119 0.103007 -3.54194e-17)
(4.445 -0.0538236 9.18471e-17)
(8.2664 0.0484922 0)
(6.72015 0.203241 1.06165e-16)
(6.60252 0.137204 0)
(4.25805 -0.0199666 0)
(7.79813 0.211945 -1.38746e-16)
(4.96172 -0.0407689 -1.4503e-16)
(7.99515 -0.0695105 -2.95897e-18)
(7.11891 -0.0228863 3.44201e-17)
(7.07113 -0.0257059 1.0775e-17)
(7.03498 0.0593097 -9.17355e-17)
(7.52443 0.0363758 0)
(5.75739 0.294213 0)
(7.76576 -0.0090009 -2.59353e-17)
(7.96528 -0.0430641 -8.89292e-17)
(5.06748 0.120263 1.20401e-16)
(5.32197 0.122978 2.09969e-17)
(4.9406 -0.118078 4.70475e-17)
(8.06287 -0.0951553 -2.77144e-17)
(5.33765 -0.0984614 -2.68489e-16)
(7.84882 0.0549781 0)
(5.18327 -0.0332836 -8.3519e-17)
(7.39516 0.131848 3.33404e-17)
(5.48305 0.109495 -1.41973e-17)
(7.04327 -0.00299724 0)
(7.28783 0.31397 -8.42562e-18)
(7.51004 -0.101192 -6.35115e-17)
(5.34853 0.0240973 0)
(7.0004 0.0103859 -3.85346e-17)
(7.02987 -0.0194965 7.86609e-17)
(7.30972 0.00793457 0)
(5.62932 0.0457133 -7.84489e-18)
(8.02234 -0.134914 8.15434e-17)
(7.43447 0.0498251 0)
(4.74435 -0.149905 0)
(8.48077 0.0407889 0)
(7.2527 -0.059967 4.24459e-18)
(7.16719 -0.113179 -6.01325e-17)
(4.48457 0.140889 -9.22657e-17)
(7.87497 -0.0990259 0)
(6.77093 -0.000675672 -4.45874e-17)
(6.59968 0.0701345 3.98148e-17)
(7.6683 0.157703 -1.84279e-17)
(7.71279 -0.00896709 5.20683e-17)
(4.68735 -0.0786128 0)
(8.1467 0.0318851 0)
(7.12334 -0.0634494 0)
(7.04432 0.0837721 -8.53931e-18)
(7.27215 -0.129376 1.01759e-18)
(7.23713 0.0153603 -7.20746e-17)
(7.22255 -0.232986 -1.03053e-18)
(7.48574 0.0146718 0)
(5.81297 0.0536904 -4.68092e-17)
(7.46737 0.031857 -3.62525e-17)
(7.74877 0.144116 -1.8992e-20)
(7.60314 0.00913019 7.32743e-17)
(7.64037 -0.0917475 3.94901e-17)
(7.4903 -0.0798023 3.86256e-17)
(8.25145 -0.138847 4.00835e-17)
(7.61456 0.017557 5.26238e-17)
(7.53144 0.10403 -3.21297e-16)
(5.65334 -0.133028 3.98357e-16)
(7.03299 -0.128942 3.90916e-17)
(8.06524 0.122061 0)
(7.80277 -0.10854 -1.66871e-17)
(8.00281 -0.0982359 1.68211e-17)
(4.99778 0.112382 6.43475e-16)
(7.35622 0.0996639 -1.7936e-16)
(5.3813 -0.0941008 -9.41212e-17)
(7.11974 -0.151131 9.92085e-19)
(6.96887 0.154112 0)
(7.43412 0.192139 -3.75976e-17)
(4.65082 -0.36475 0)
(5.10682 -0.218893 -3.93887e-17)
(7.36281 0.0083558 1.91169e-19)
(7.0353 0.0405973 1.73704e-17)
(7.93852 -0.106169 9.52902e-17)
(7.54399 -0.0650953 5.06008e-17)
(3.85946 -0.698886 -4.32669e-18)
(7.00557 0.0774429 4.56642e-17)
(6.95764 0.130879 -2.63262e-17)
(7.45869 -0.0330644 2.83121e-17)
(7.1958 -0.123518 0)
(6.68989 0.0987788 0)
(7.09318 -0.224176 -2.00298e-17)
(4.6699 -0.00486382 8.64602e-18)
(3.5361 -0.566772 -2.1222e-17)
(6.53016 -0.0642336 1.20962e-17)
(7.5239 0.0489236 -3.62505e-18)
(7.01991 0.0931492 1.13375e-17)
(6.99088 0.0897473 0)
(7.35666 0.0844669 -8.04143e-17)
(7.10517 0.0923089 -6.04255e-17)
(3.57644 -0.396873 3.888e-17)
(3.98028 -0.513201 -2.95052e-17)
(7.49834 0.00780661 6.014e-18)
(7.58669 0.0142281 0)
(7.24385 -0.129014 -9.07523e-18)
(3.92575 0.130428 -2.66291e-17)
(7.941 -0.17113 8.37567e-17)
(7.99986 -0.172604 -8.97293e-17)
(6.96914 0.11932 0)
(6.97514 0.132079 0)
(6.9845 0.102003 -5.22503e-17)
(6.87662 -0.298097 8.27896e-18)
(7.23066 -0.178706 1.02612e-16)
(0.435803 0.0823508 -6.51347e-17)
(7.04312 0.084523 2.38374e-17)
(6.97586 0.129716 4.02428e-17)
(8.23357 -0.197909 -1.22997e-16)
(7.19296 -0.102409 -1.00837e-19)
(7.14945 -0.137718 3.83657e-18)
(7.24389 -0.131372 7.65224e-18)
(6.65455 0.159018 -4.34673e-18)
(7.46846 -0.14113 0)
(7.20685 0.230814 -1.92195e-17)
(7.02362 0.10888 -4.68985e-17)
(6.56386 -0.265124 4.08918e-17)
(6.99954 0.00693539 0)
(6.75281 -0.255339 2.92775e-17)
(7.13752 -0.117466 -5.13714e-17)
(7.07984 0.0942661 9.38767e-17)
(7.28972 0.116778 3.80613e-17)
(7.1111 0.0560267 -3.23129e-17)
(7.254 0.117935 7.31142e-17)
(7.03522 0.00799122 -9.54168e-18)
(7.34937 0.269855 7.98656e-19)
(7.09918 -0.16083 5.98239e-17)
(7.70216 -0.263601 -7.07741e-18)
(7.76043 -0.0388854 0)
(7.01398 -0.194738 -1.62082e-17)
(7.4743 0.265776 -2.27159e-17)
(7.21171 -0.0573435 -5.03674e-17)
(7.14789 0.18786 -8.12481e-18)
(7.36144 0.0328297 3.32273e-17)
(7.31734 0.0707531 5.59282e-17)
(7.00345 0.00647917 -3.02065e-18)
(6.62642 0.124083 -5.77137e-18)
(7.79048 0.0916782 3.32267e-17)
(7.86873 -0.112578 9.98169e-18)
(6.47754 0.196978 0)
(6.95017 -0.0969559 1.30097e-17)
(7.37556 -0.0748788 2.43161e-17)
(7.02468 0.0595541 3.63528e-17)
(7.07318 -0.0102386 2.22044e-17)
(7.6934 -0.185825 -3.65634e-17)
(7.92708 -0.0951175 3.81023e-18)
(7.94804 -0.13114 0)
(7.70078 -0.136944 -6.94795e-17)
(7.22744 0.102982 1.88793e-16)
(6.89897 0.151989 -6.33989e-16)
(7.65272 -0.169808 0)
(7.76058 -0.176768 0)
(7.74651 -0.156409 7.06602e-18)
(7.6858 -0.166916 0)
(7.17571 -0.0671157 0)
(7.06568 -0.0130044 -5.73044e-17)
(7.49907 -0.18072 2.09034e-17)
(7.75498 -0.109171 0)
(7.67402 -0.157023 0)
(7.59171 -0.119005 -1.17311e-17)
(4.43392 -0.0194278 -3.62101e-17)
(4.11924 0.101775 7.13875e-18)
(7.49337 -0.138827 0)
(7.30294 -0.163895 1.75631e-17)
(1.29614 -0.110356 -4.19068e-17)
(6.94061 0.027798 -1.55018e-16)
(6.78998 -0.0179857 7.92247e-17)
(1.28128 -0.0651577 0)
(1.26313 0.0227482 0)
(4.99935 -0.078851 -2.29749e-17)
(6.92414 0.11737 -3.24601e-17)
(6.58438 -0.0298709 1.50033e-18)
(8.2352 0.057417 -3.67017e-17)
(7.02965 0.129263 -1.02838e-17)
(7.01939 0.111391 -8.66922e-19)
(7.03393 0.0793467 5.76069e-18)
(6.98372 0.124124 1.95842e-17)
(6.98613 0.0980198 1.43961e-17)
(8.32672 -0.125011 1.0374e-16)
(6.89759 -0.119624 7.73265e-17)
(6.71642 -0.204138 -4.09392e-17)
(5.19479 0.0275144 -4.46058e-17)
(7.07677 0.0693697 2.20622e-17)
(7.03781 0.0955995 4.66671e-17)
(7.61349 0.156964 0)
(1.35327 0.0207254 6.28728e-17)
(1.73331 0.0138286 0)
(7.73677 0.192246 7.37797e-18)
(8.08054 -0.071474 0)
(7.63197 0.447687 -1.34835e-17)
(7.59824 0.27922 -1.40482e-16)
(6.9738 0.0898962 0)
(6.79423 0.113597 4.68697e-17)
(6.89729 0.0910453 6.91907e-17)
(7.36789 0.0840276 3.32255e-16)
(7.08902 -0.174651 -5.73999e-17)
(6.88257 -0.240476 -3.13125e-17)
(7.11991 -0.0107232 4.20438e-17)
(7.30936 0.0282334 -2.34845e-17)
(6.37565 -0.126817 -6.37367e-17)
(6.80728 0.091589 -1.38977e-16)
(7.27179 0.212322 3.04607e-17)
(7.17137 -0.208812 -5.15044e-17)
(7.2567 -0.183737 -5.02963e-18)
(7.19568 -0.156682 -2.63207e-17)
(7.27351 -0.133346 1.66249e-17)
(7.45064 -0.139937 0)
(7.66012 -0.00147355 -9.96234e-17)
(8.28922 -0.066853 -3.13474e-17)
(6.89774 0.0111462 4.84323e-17)
(7.42579 -0.0558854 -3.75341e-18)
(7.00125 0.0531221 -5.96912e-17)
(7.31802 0.0528138 0)
(7.60248 -0.0162678 7.29601e-18)
(7.45398 -0.123074 -7.24063e-18)
(7.79601 0.163861 -2.84757e-17)
(6.9903 0.228774 -1.78565e-17)
(7.00368 0.0227818 0)
(7.00156 0.0441629 4.87035e-17)
(7.38372 -0.0831634 -1.1608e-17)
(7.25869 -0.0582494 1.07918e-17)
(6.80142 -0.0851423 4.15552e-17)
(6.92918 -0.0775711 0)
(6.50409 -0.230181 0)
(7.75762 -0.112326 -2.0832e-17)
(7.58771 -0.130052 8.25766e-18)
(7.81668 0.0778184 -7.66888e-18)
(8.01349 -0.0779022 5.85265e-17)
(2.51115 1.28917 -7.01612e-18)
(3.00078 -0.47999 7.41942e-18)
(6.11897 2.42448 -2.32182e-18)
(6.24153 2.46692 0)
(3.03088 -1.38738 1.31853e-17)
(2.95224 -1.36761 1.37987e-17)
(7.51791 -3.81759 4.74328e-18)
(6.63028 1.12705 1.50355e-17)
(7.69748 -1.40926 2.4089e-19)
(4.29282 -0.742436 -2.12691e-17)
(6.61979 1.63273 9.92859e-19)
(5.02572 -1.36956 -1.62858e-17)
(3.9897 -0.735231 0)
(7.08917 -0.31083 -7.22423e-18)
(3.26166 -0.465653 -2.22869e-17)
(4.09662 -1.39898 -1.46675e-18)
(0.624475 0.302115 7.00001e-17)
(7.75034 -1.36438 2.94534e-19)
(4.1925 0.161923 2.54247e-18)
(6.21355 -3.55239 1.25968e-18)
(4.00248 -0.430343 -3.7035e-19)
(4.09783 -1.47783 0)
(6.61861 -3.22021 1.58989e-18)
(6.83644 -3.36993 6.30279e-18)
(6.67299 -3.88185 2.51132e-18)
(6.75269 -3.86579 -1.51528e-18)
(6.28607 2.1965 -1.76645e-18)
(6.23167 2.30087 1.9241e-18)
(0.707691 -0.36853 0)
(3.18097 -1.358 2.71078e-18)
(3.09276 -1.30381 -1.9043e-17)
(4.15049 -0.755668 2.03624e-17)
(6.09988 -1.68361 -1.08478e-17)
(6.6349 2.71612 2.97758e-19)
(6.10357 2.74101 1.05146e-19)
(6.08106 -4.10057 1.79147e-18)
(1.55617 0.601822 -1.71534e-17)
(6.07692 2.36959 -3.14388e-18)
(6.78989 -1.93458 0)
(6.91125 -1.84106 2.37217e-20)
(6.87089 1.74294 -3.63033e-19)
(6.79603 1.74399 0)
(6.47918 1.96244 -2.32176e-18)
(6.52758 2.00417 0)
(6.53548 1.01258 0)
(6.70113 1.83414 -1.17963e-18)
(6.76059 1.82986 1.0219e-18)
(3.27845 -0.595639 3.08878e-17)
(3.38908 -0.6416 3.02585e-17)
(5.92651 2.67679 -2.21437e-18)
(6.25175 2.46942 0)
(6.22978 2.47671 0)
(7.44423 -3.23141 4.55351e-18)
(7.34758 -3.55238 7.49836e-18)
(4.22491 -0.617018 0)
(4.23448 -0.320561 0)
(6.13676 -3.86277 1.83013e-18)
(4.83172 -1.14438 4.08133e-17)
(4.29301 -0.983531 -1.15495e-17)
(3.69591 -0.709015 -3.70942e-17)
(3.69533 -2.18621 3.2149e-18)
(6.3089 2.12351 0)
(3.64069 -1.58526 -3.79305e-18)
(6.21173 2.4631 3.74069e-19)
(6.2409 2.35067 -4.70114e-19)
(3.23627 -1.26393 9.74499e-18)
(6.79258 -0.387482 0)
(6.06525 -3.89805 0)
(2.90765 0.0271128 0)
(6.71983 -4.27186 1.81383e-18)
(6.72265 -4.22931 -8.76393e-19)
(6.08856 -3.9581 0)
(6.16287 -3.97568 -3.56553e-18)
(6.04337 -4.01185 1.79019e-18)
(4.10824 -0.408462 1.24407e-18)
(4.1372 -0.553095 2.47318e-21)
(6.92095 -3.07931 -2.62039e-19)
(6.22058 2.1989 3.06537e-19)
(6.1928 2.2636 4.69054e-18)
(6.80475 -3.57471 3.25177e-18)
(6.95374 -4.36495 0)
(3.16797 -1.50299 -7.39666e-18)
(3.10833 -0.314557 0)
(6.14392 2.26368 -5.03298e-18)
(6.12993 2.30065 0)
(6.11201 2.20705 0)
(7.06997 0.248743 -1.9238e-17)
(4.22189 -0.398671 -3.36388e-18)
(4.22793 -0.543199 -3.72999e-18)
(6.59745 0.499897 -7.59491e-17)
(6.70464 0.383448 -4.79326e-17)
(4.11326 0.879886 2.06024e-18)
(4.08029 1.02612 -2.5688e-18)
(6.77379 -4.20684 0)
(6.36684 -3.83294 1.59519e-19)
(6.27672 2.3933 0)
(6.34065 2.35623 0)
(6.31247 2.33407 0)
(6.31117 2.40762 0)
(3.07648 -1.19265 -5.45099e-18)
(5.95803 -4.00753 0)
(3.06261 -0.491335 9.96406e-18)
(3.14728 -0.486898 -6.38026e-18)
(3.11442 -0.41123 -1.76691e-17)
(3.10035 -0.533174 -5.19341e-18)
(6.41997 2.264 5.00069e-19)
(6.37752 2.23556 3.6709e-18)
(6.85187 -4.28693 1.86236e-18)
(6.23199 2.42326 3.43504e-19)
(6.64766 1.52454 9.05169e-18)
(7.46182 -0.440072 0)
(6.95195 -2.5888 1.95228e-17)
(7.31961 -3.01112 4.17858e-18)
(6.44687 -2.19726 0)
(7.06024 -0.343228 3.00494e-18)
(3.28244 -0.341555 0)
(3.30045 -0.116873 0)
(5.75097 -0.773435 0)
(0.637097 -0.198006 6.4072e-17)
(6.91204 -2.85292 -6.28313e-19)
(2.84815 -1.89749 -1.12159e-18)
(7.25421 -2.84564 0)
(3.0888 -0.640533 4.593e-18)
(3.08183 -0.839439 9.88832e-18)
(6.26035 2.45082 -7.28354e-20)
(6.25068 2.43364 -1.27439e-20)
(6.28674 2.44131 1.04426e-19)
(6.19012 0.329191 -7.77871e-17)
(3.49135 -0.164017 3.02664e-17)
(3.36287 -0.320719 2.17897e-18)
(3.50863 -0.324028 -3.35599e-17)
(3.37882 -0.155666 -2.291e-18)
(6.99007 0.170211 1.95432e-17)
(7.04659 -0.248833 -3.08154e-18)
(3.5285 -0.0947323 -2.44054e-17)
(3.81004 0.0522515 -5.81257e-18)
(3.77833 -0.118138 1.07061e-18)
(3.6766 0.620156 0)
(3.88046 0.365246 2.59482e-17)
(3.00411 -1.18049 0)
(2.98842 -1.08508 6.50591e-21)
(6.60727 -0.562752 7.6466e-18)
(6.65851 -0.355887 3.2206e-18)
(6.2213 2.33768 -4.98793e-19)
(6.2495 2.38284 5.25012e-19)
(3.48785 -0.271932 1.98166e-17)
(6.3847 2.36379 0)
(6.41688 2.3204 0)
(6.39961 2.43575 0)
(7.07933 -3.60704 6.82204e-18)
(7.26142 -3.64623 0)
(2.91495 -0.460689 -6.3537e-18)
(7.18396 -3.03474 -6.60058e-18)
(6.9402 -3.24501 6.90672e-18)
(6.80207 -4.31946 0)
(6.75265 -4.27721 -1.91011e-18)
(6.8135 -4.2804 8.15473e-20)
(6.74752 -4.32366 0)
(6.72344 0.280686 0)
(6.71607 -3.73585 7.81021e-20)
(6.77419 -3.81384 1.55919e-18)
(6.8101 -3.66966 -1.55544e-18)
(6.4339 -0.41755 -4.03081e-17)
(6.45243 -0.536081 5.47653e-17)
(6.5194 -0.360172 -6.14054e-17)
(3.13838 -0.265187 5.5121e-18)
(3.22773 -0.168348 -5.68262e-18)
(3.15842 -0.165306 -2.87263e-18)
(3.21834 -0.272011 2.75831e-18)
(4.39841 -0.412312 -3.12411e-17)
(4.17475 -0.526575 1.08964e-18)
(4.29996 -0.543582 0)
(4.33364 -0.314442 1.89696e-17)
(6.84094 0.564532 1.8059e-17)
(3.28745 -3.09754 4.06791e-18)
(3.48172 -2.91426 1.78892e-18)
(3.38232 -1.82305 6.2467e-20)
(3.23321 -1.8605 -5.18549e-18)
(3.12488 -0.14075 -5.06433e-18)
(3.13035 -0.0230937 5.42756e-18)
(3.03339 -0.161982 0)
(4.14344 0.487772 0)
(3.87905 0.779547 9.07923e-18)
(4.34021 -0.234455 0)
(4.13338 -0.0247615 0)
(4.06002 -0.215452 0)
(4.35566 -0.103622 0)
(6.89993 -1.66204 6.55778e-20)
(6.899 -1.72748 0)
(6.50157 -3.66678 1.45417e-18)
(6.53219 -3.77542 0)
(6.61221 -3.69947 2.25643e-19)
(6.45575 -3.69348 -4.40837e-18)
(4.04598 1.10038 0)
(6.56075 -3.30935 -6.04247e-18)
(6.34199 -3.47484 0)
(4.08506 1.58484 -1.1679e-18)
(4.13392 1.12714 0)
(3.72908 -0.382251 -2.42026e-17)
(3.96741 -0.230729 0)
(3.81407 -0.187872 0)
(3.94509 -0.381188 2.98243e-17)
(3.42188 -1.1445 4.17479e-17)
(3.36369 -1.27052 -1.49752e-17)
(6.92827 0.138247 -4.79117e-18)
(6.57461 -0.0624857 9.21092e-17)
(6.53125 -0.169563 0)
(6.48824 -0.125906 9.17704e-17)
(6.61244 -0.147549 0)
(3.36374 -1.03926 -1.80964e-17)
(3.44007 -0.901494 0)
(3.24232 -1 0)
(4.47228 -1.09264 -2.51343e-17)
(4.63645 -0.722922 -1.13013e-17)
(4.4537 -0.822519 1.16795e-17)
(6.50944 -3.90802 1.23164e-18)
(6.53256 -3.82784 2.01884e-18)
(6.59383 -3.85469 -1.29122e-18)
(6.47353 -3.84393 -2.77494e-18)
(7.02939 -3.54254 -8.69985e-18)
(6.90621 -3.41791 -5.60304e-18)
(7.06753 -3.44774 2.00262e-18)
(6.87979 -3.5277 -3.97115e-18)
(4.08518 -1.04569 0)
(4.08079 -1.13597 0)
(4.02329 -1.03794 -3.68385e-19)
(6.09719 2.79935 4.33132e-20)
(7.34482 -0.181262 -2.90744e-17)
(7.16401 -0.211802 3.37116e-18)
(7.23815 -0.201337 1.80995e-17)
(7.27139 -0.183412 -1.23021e-17)
(6.35615 2.94228 -7.69593e-20)
(5.2516 -0.145053 5.14926e-17)
(6.10734 2.37209 -1.64401e-18)
(6.12097 2.39933 -7.66276e-19)
(6.1407 2.33779 1.36548e-18)
(3.4248 -1.39691 0)
(3.34573 -1.54876 0)
(3.61029 -1.41557 2.60476e-17)
(6.0731 -1.33942 6.23749e-18)
(3.55399 0.375708 0)
(3.72646 0.377087 2.54003e-19)
(3.65578 0.296981 0)
(3.6307 0.508032 -1.07995e-17)
(6.93726 0.430792 2.29482e-17)
(3.09161 -0.92324 2.87694e-18)
(2.99833 -1.03382 -6.48616e-18)
(3.00308 -0.962914 3.42368e-18)
(3.09191 -1.01819 0)
(8.02724 0.196391 -6.53299e-17)
(0.567001 -0.0913371 1.24522e-16)
(7.7488 -0.343067 4.46392e-17)
(8.06978 -0.0250797 0)
(1.8282 -0.159425 -3.32353e-17)
(7.08533 0.287871 -1.72043e-17)
(4.66521 0.0628366 -8.10669e-17)
(6.99738 0.0212329 3.55043e-17)
(7.0074 0.107891 -2.30357e-17)
(7.00661 0.0824471 -4.61446e-17)
(7.9592 -0.225492 0)
(3.38995 -0.441227 -3.32711e-18)
(6.75734 0.28291 0)
(6.8017 0.236418 1.81546e-17)
(6.07281 -0.0887973 0)
(6.31254 0.191935 -9.06842e-17)
(6.20437 0.237602 4.81598e-17)
(6.51168 0.0750036 2.55623e-17)
(6.44044 0.118091 0)
(2.93313 -0.275514 6.96769e-18)
(6.91811 0.176352 -4.28727e-17)
(6.89597 0.209913 -4.73002e-17)
(5.40654 -0.16882 -3.18727e-17)
(6.9576 0.29571 1.76662e-17)
(6.9468 0.348008 1.18894e-17)
(2.91464 0.526342 2.7155e-17)
(7.00935 0.0754426 4.08002e-17)
(7.69301 0.332377 -1.91937e-17)
(0.414693 0.11683 -8.09588e-17)
(7.00032 0.143592 -1.3764e-17)
(6.96998 0.229482 2.85931e-17)
(7.1907 0.280744 0)
(5.44021 -0.329252 -6.3333e-17)
(7.39532 -0.205186 9.11349e-17)
(3.08811 -0.306346 3.53876e-18)
(3.28137 -0.219817 -1.87673e-17)
(6.88961 0.877418 1.22083e-17)
(7.01207 0.118466 3.04402e-17)
(7.31952 -0.250998 -2.41502e-17)
(7.37575 -0.267563 -8.4405e-17)
(7.32549 -0.322315 2.76953e-17)
(7.61315 -0.195514 4.09079e-17)
(6.57331 -0.398014 7.09383e-18)
(6.55254 -0.49929 -9.77585e-18)
(7.11157 -0.179078 8.2493e-19)
(7.09608 -0.217834 2.35468e-17)
(7.05499 0.20706 -1.02484e-17)
(6.36537 -0.288423 -6.92551e-17)
(6.7103 -0.411009 0)
(6.68272 -0.52602 0)
(6.98603 -0.155204 -4.77712e-18)
(6.88358 -0.162217 0)
(0.393432 0.114197 0)
(3.06798 0.480431 1.5889e-17)
(7.55191 -0.147121 3.16455e-17)
(7.63562 -0.121197 5.68401e-18)
(7.2533 0.396056 1.85086e-19)
(7.07359 -0.220705 0)
(7.13259 -0.189551 0)
(6.69819 0.226782 -1.71673e-17)
(7.57472 -0.381137 0)
(7.00244 0.0689689 -2.18996e-17)
(6.99691 0.085911 7.8786e-17)
(7.01222 0.176318 -3.30953e-18)
(7.30553 -2.82866 1.46277e-17)
(6.81361 -2.33964 -1.14591e-17)
(6.82168 -2.23119 1.05951e-17)
(5.68138 0.0858968 3.85285e-17)
(7.00976 0.15173 0)
(4.93713 -0.11273 -2.31638e-16)
(7.36431 -0.350654 0)
(6.69664 -0.0715383 -2.42615e-17)
(6.46364 -0.0784499 1.14823e-17)
(6.34167 -0.0814373 1.13222e-17)
(7.10969 0.329 -2.78857e-17)
(3.1066 -0.545247 0)
(7.46444 -0.374245 8.14142e-18)
(7.41912 -0.340932 -3.85598e-17)
(4.76729 -0.141801 0)
(4.95915 -0.131303 0)
(2.95273 -0.939014 9.07747e-20)
(7.80646 0.228155 -9.64875e-18)
(7.22267 0.217337 -4.02992e-17)
(7.29407 -0.0338779 0)
(8.36163 -0.0586088 -1.06419e-16)
(7.16061 0.364934 0)
(7.12668 0.32377 1.33577e-17)
(6.94445 0.191116 -3.19049e-17)
(4.7543 -0.508016 0)
(8.15678 0.105339 -4.04412e-17)
(7.95063 0.184047 -8.46385e-17)
(5.97216 0.0268061 4.81473e-17)
(5.82019 0.0979051 -5.63808e-17)
(7.34068 0.0935056 -1.39793e-17)
(6.37153 2.10465 1.49003e-18)
(6.4056 2.01228 -1.627e-18)
(5.98758 -0.13607 -1.96948e-17)
(7.00074 0.0207942 0)
(6.97714 -0.316334 -2.40337e-18)
(7.05471 -0.246178 -2.43982e-18)
(6.99885 -0.273851 0)
(8.14333 -0.0286066 1.27752e-17)
(8.07265 0.0333378 -2.55365e-17)
(3.9495 0.491505 0)
(3.83591 0.652338 1.98485e-17)
(6.40994 2.14693 2.59328e-18)
(6.49317 2.10118 -2.39522e-18)
(6.78663 0.0441632 1.45158e-16)
(6.5709 0.0469439 5.34838e-17)
(0.7258 0.157473 1.05266e-17)
(5.15259 -0.049447 5.49644e-17)
(7.07521 -0.00711483 -9.69299e-17)
(6.94441 0.135333 -3.9227e-17)
(6.87795 0.155085 6.4049e-17)
(6.82917 0.189109 -5.63637e-17)
(7.00955 0.0545934 0)
(7.00207 0.043296 -1.10159e-17)
(6.92244 -0.350291 2.41231e-18)
(6.92855 -0.296434 -8.30347e-18)
(7.0004 -0.256822 0)
(3.64344 -1.32662 -2.85121e-17)
(3.54715 -1.15789 -8.05879e-18)
(3.6376 -1.03122 0)
(6.88488 0.17379 -6.75569e-17)
(6.84953 0.241469 -3.73108e-17)
(6.87237 0.208463 4.43786e-17)
(6.81973 0.256555 6.05217e-17)
(7.83181 0.346252 1.01701e-16)
(7.78366 0.300872 -4.38817e-17)
(7.82774 0.227908 0)
(6.81071 -0.0833739 2.83316e-17)
(3.06118 -1.51821 -7.24156e-18)
(6.61193 0.103306 -2.56281e-17)
(6.57595 0.150973 4.34114e-18)
(6.94736 0.0593826 1.10859e-16)
(7.27137 -0.0821317 1.34442e-16)
(3.63794 -1.59164 0)
(3.44099 -1.67657 4.69814e-18)
(5.65231 -0.0424166 -9.12194e-17)
(5.48737 -0.0594163 3.77021e-17)
(7.37618 0.103189 0)
(6.83841 -0.0837189 8.45476e-17)
(7.51876 0.0776948 -4.74623e-17)
(7.33681 -0.162038 0)
(7.49783 -3.53861 9.1863e-18)
(7.44499 -3.30892 -9.28602e-18)
(5.08072 0.0673083 0)
(5.24449 0.00914191 -4.90332e-17)
(5.39138 0.0775623 3.32477e-17)
(4.23515 0.296606 0)
(4.39726 0.254537 2.15353e-17)
(6.86111 0.275285 -1.54139e-17)
(6.84897 0.316345 -1.40208e-17)
(6.82035 0.330483 0)
(7.9501 -0.208974 -7.23593e-17)
(7.05404 0.010171 0)
(6.96897 -0.00537715 -3.83359e-17)
(6.50305 -0.00338508 -1.66416e-16)
(6.3405 -0.0738146 0)
(6.40826 0.000515609 9.96843e-18)
(7.11631 0.252324 1.85778e-17)
(7.12089 0.288299 3.43194e-18)
(6.22853 -0.0527278 0)
(6.21122 0.0433481 -2.45376e-17)
(6.10372 0.0969746 -1.12868e-16)
(7.01319 0.0295928 0)
(7.53242 -0.34788 0)
(7.6639 -0.299019 0)
(7.66419 -0.271411 0)
(0.775362 -0.106142 -5.3479e-17)
(2.97659 0.470036 -7.57724e-18)
(7.1108 -0.246222 0)
(7.07774 -0.284308 1.25126e-17)
(7.04129 -0.278764 -7.91033e-18)
(3.66104 -0.729818 6.11852e-18)
(3.58025 -0.888236 0)
(7.71958 -0.121132 8.47428e-18)
(7.97461 0.0723363 6.52491e-17)
(7.71538 0.149455 0)
(9.69771 0.440404 1.1341e-18)
(9.64762 0.506291 0)
(5.99754 1.15132 1.59714e-19)
(6.57462 -4.49081 1.38732e-20)
(6.65485 0.560383 -7.02933e-17)
(3.90366 0.359463 2.00985e-18)
(6.51461 1.15452 -3.17135e-20)
(2.94096 0.508012 6.70316e-18)
(3.88933 -0.678223 0)
(6.11315 3.14024 1.58523e-19)
(5.4973 -3.15488 0)
(5.52609 -3.23628 0)
(7.19603 -4.40773 0)
(6.27273 2.21612 0)
(6.27451 2.20107 3.36619e-20)
(6.11846 2.34347 0)
(6.11502 2.36671 -1.91378e-21)
(6.14325 0.734852 0)
(7.91176 0.274424 -5.21387e-19)
(7.00676 -2.158 0)
(3.75499 -2.29868 1.66428e-18)
(4.34836 0.222996 2.59712e-19)
(6.18852 -2.18685 7.27752e-20)
(6.23178 -2.23856 -9.17719e-20)
(7.05044 -4.42986 -2.10884e-19)
(7.05725 -4.43364 0)
(6.94361 1.03932 0)
(8.37557 0.933072 0)
(1.52794 -1.68636 4.22709e-17)
(2.81636 0.0898013 -2.19274e-18)
(2.46715 -2.85392 -5.96141e-18)
(2.36254 -2.8033 0)
(6.48276 2.72277 1.41264e-20)
(7.4434 0.776614 0)
(7.43175 0.818488 0)
(4.90002 0.958159 0)
(3.47848 -2.75564 0)
(7.4315 0.521883 -2.98964e-20)
(2.59121 -0.862006 -5.14253e-18)
(7.18185 1.24946 3.10264e-20)
(3.56246 -1.91859 -2.14804e-18)
(6.10705 0.752579 -1.40218e-22)
(4.25322 1.05491 0)
(4.22866 1.01412 0)
(6.51185 2.93581 0)
(8.0251 0.175495 -5.0692e-19)
(6.85545 -4.46005 1.02769e-18)
(3.20159 -3.72989 2.19585e-18)
(3.3353 -3.44575 2.88555e-20)
(6.98126 1.02986 0)
(8.48548 -0.572371 0)
(6.05836 3.16671 -3.97673e-19)
(6.01008 3.12674 0)
(6.03357 2.92838 6.546e-19)
(6.6857 -0.747611 1.95718e-17)
(7.99148 0.502528 0)
(7.30302 0.949725 -6.96944e-20)
(6.68568 -0.842618 2.29452e-17)
(6.06407 3.52909 -1.9515e-21)
(6.79983 -2.10391 -6.57369e-20)
(6.79401 -2.05589 7.8981e-20)
(7.1661 -4.35666 9.87951e-19)
(7.18051 -4.34196 3.35939e-18)
(7.43042 0.673636 -5.05135e-20)
(7.43697 0.615002 -1.40709e-20)
(8.65147 -0.277172 1.41161e-18)
(6.21752 2.18695 0)
(6.25475 2.19323 -3.12889e-20)
(8.94734 1.002 2.02703e-18)
(6.47063 0.976279 2.96116e-20)
(6.14778 -4.34297 2.31115e-18)
(5.49536 -3.03531 -2.16727e-18)
(5.85199 3.09788 -3.09519e-20)
(6.39336 -2.35825 2.68579e-20)
(7.80076 0.203893 0)
(6.0293 -2.44155 4.49293e-18)
(6.39217 0.904489 -7.70382e-18)
(6.28686 -1.4962 0)
(3.9429 -1.40301 3.26214e-17)
(9.06095 0.0296847 2.98606e-20)
(3.33518 2.19777 -2.54525e-18)
(5.71719 2.49291 1.41764e-18)
(5.66646 2.45688 -1.38567e-18)
(7.28918 1.12266 0)
(3.9976 -0.813755 -3.53785e-19)
(4.01721 -0.981396 -3.27701e-19)
(6.22976 2.33515 1.919e-19)
(6.26915 -2.34472 6.46787e-20)
(4.33246 1.75979 -2.65423e-19)
(2.95005 -0.07496 6.42656e-18)
(3.01847 0.0898589 1.15674e-17)
(7.35261 -1.37329 2.39838e-19)
(6.18319 0.956749 1.25684e-19)
(6.2091 0.980661 -2.04232e-19)
(6.38707 -4.49557 -1.23526e-18)
(6.30578 -4.48739 -2.63447e-20)
(8.37627 0.27433 3.85691e-19)
(8.37401 0.325884 2.76803e-19)
(7.2036 -1.67375 0)
(7.05499 0.503985 -8.56216e-21)
(4.28232 1.43514 1.39054e-18)
(4.36014 1.34818 1.81476e-18)
(7.0409 3.32601 1.19658e-19)
(7.14926 0.631302 -3.18551e-20)
(5.73746 -4.18632 -1.2328e-18)
(6.23774 3.3006 1.73437e-20)
(6.31483 3.18871 -1.1092e-21)
(4.57069 -0.257893 -1.45643e-18)
(4.74476 -0.339759 -7.05791e-19)
(7.89456 -0.869433 0)
(6.68277 0.577254 1.09144e-19)
(7.96294 0.699934 0)
(7.84206 0.658965 2.25528e-19)
(6.49504 0.703485 -1.74389e-19)
(4.20705 -1.48912 0)
(4.14851 -1.51118 0)
(6.3565 0.938983 2.51615e-20)
(7.61044 0.172363 -1.23472e-19)
(7.27378 -4.33299 0)
(5.62669 1.20472 0)
(7.67354 -3.65271 0)
(6.66165 -4.52837 6.81112e-19)
(6.64393 -4.54561 1.22481e-18)
(4.57225 0.184395 1.82741e-18)
(4.5911 0.116742 -1.64187e-18)
(3.51934 -1.10723 -3.65433e-19)
(8.41417 -4.54448 1.05725e-18)
(7.96162 -2.7156 1.23509e-19)
(1.20564 -3.33693 4.73178e-18)
(8.04318 -3.85346 4.58933e-19)
(5.94371 2.13669 -1.0469e-19)
(6.18799 2.46075 5.36318e-19)
(7.52376 -0.60648 -3.05509e-19)
(7.63121 -0.599049 1.29662e-19)
(5.7981 2.95023 7.06349e-20)
(4.05575 -0.644009 1.38759e-18)
(3.93354 -3.06909 6.74016e-18)
(6.64449 1.12254 0)
(9.34684 -2.10858 2.31398e-18)
(7.56083 0.909488 1.88008e-19)
(7.03293 -1.14071 0)
(6.72386 0.679065 3.97023e-20)
(6.20642 1.95247 6.71581e-19)
(6.1635 1.91284 -1.37978e-18)
(8.1927 -0.421121 4.4099e-19)
(8.17296 -0.332273 -8.0197e-19)
(5.97822 -2.66009 -3.5469e-19)
(4.41701 0.701179 -9.35788e-19)
(6.3541 2.36477 -8.80523e-20)
(6.41596 3.07612 -1.66244e-21)
(7.26381 1.07153 1.86778e-20)
(5.9784 1.08262 1.54819e-19)
(6.9826 0.572407 0)
(2.40528 -1.92996 0)
(3.88438 -0.591261 0)
(8.18024 1.60918 1.29965e-19)
(7.81795 -0.715751 2.3157e-19)
(7.12907 -1.67565 -1.42654e-19)
(6.97979 -1.72813 0)
(4.79323 0.0263539 -1.67079e-18)
(4.84726 0.015623 0)
(5.52254 -3.55672 -1.1723e-19)
(5.64346 -3.602 -7.45145e-19)
(6.71149 -1.02488 0)
(8.41752 -0.129531 0)
(8.40376 -0.0771512 0)
(7.10718 -4.41776 0)
(7.07496 -4.42851 0)
(6.53811 2.53429 7.2059e-21)
(6.52909 2.97151 -5.63183e-21)
(6.52031 3.0096 1.49872e-20)
(6.31257 2.36266 -1.07051e-19)
(7.3809 -1.5202 2.55301e-19)
(7.24704 -1.60828 1.00145e-19)
(7.03526 3.37869 -2.67243e-19)
(5.73205 1.15849 0)
(5.91904 1.08167 3.03848e-19)
(5.92827 1.03605 1.56076e-19)
(7.27791 0.811856 1.56607e-19)
(7.38175 0.824189 -1.43532e-19)
(7.66397 -4.41284 5.05333e-18)
(7.72543 -4.37519 0)
(6.05512 2.33389 -2.95973e-20)
(7.11643 -1.03347 1.01729e-19)
(7.09549 -1.12936 0)
(2.98651 0.6214 -6.9593e-18)
(2.94986 0.5797 7.90682e-18)
(2.98161 0.738817 -3.54356e-18)
(6.99186 -4.36854 1.15962e-18)
(6.07087 -0.24768 0)
(6.30635 -0.917043 0)
(5.87433 0.601813 3.99812e-19)
(5.87989 -2.15548 0)
(4.52317 0.671475 -1.0163e-19)
(4.5897 0.56771 1.24634e-18)
(7.29694 -3.94963 4.55689e-18)
(7.45555 -0.602117 -3.55748e-19)
(6.22749 2.24941 -1.6869e-19)
(7.2401 1.71881 8.73177e-20)
(8.26846 -0.75118 0)
(8.3516 -0.612051 0)
(6.1619 0.368784 9.95414e-21)
(7.22133 -2.00644 3.66604e-19)
(6.7207 -4.55314 -2.86686e-19)
(6.49422 1.51984 8.94241e-19)
(7.8704 0.630486 0)
(7.94396 0.649926 0)
(6.47277 -4.43932 6.99283e-19)
(6.57403 -4.44694 0)
(7.36649 -4.65488 -9.34243e-19)
(4.72314 0.354846 0)
(4.55928 -0.189816 2.41894e-19)
(3.34254 -3.25753 0)
(6.33056 2.25256 1.04127e-19)
(6.52229 -4.55793 0)
(6.32023 2.28998 5.03034e-20)
(6.35935 2.32271 -8.79011e-20)
(5.45099 -3.28961 3.30491e-19)
(5.28947 -3.37309 0)
(7.71247 -1.08832 0)
(7.66056 -1.13622 0)
(8.17808 1.17121 0)
(6.30161 2.27697 -5.28827e-20)
(6.26837 2.24359 1.64567e-19)
(6.35678 2.30107 -5.65741e-20)
(6.37789 2.29749 4.88328e-20)
(6.34184 2.28562 7.42958e-22)
(7.50036 0.615675 -1.31072e-19)
(4.92821 0.92497 0)
(9.27434 -2.15578 9.89822e-19)
(6.48562 2.75773 5.25873e-21)
(6.28977 2.56577 -2.7003e-19)
(6.25765 2.57524 0)
(6.00234 -4.40576 -4.77752e-19)
(5.99775 -4.43831 4.86744e-19)
(6.80631 1.00794 -8.13198e-22)
(4.2288 0.651958 -4.63236e-20)
(5.03965 -1.6323 -1.89048e-17)
(4.6803 -1.30576 2.10425e-17)
(5.77936 -1.98916 1.55546e-18)
(6.22396 1.05335 1.37843e-19)
(3.87834 0.294984 -3.23502e-18)
(6.0942 2.30039 -1.46648e-19)
(6.451 2.35976 1.17943e-20)
(8.13876 -4.45578 -1.34819e-18)
(4.41554 1.23317 0)
(4.94072 -0.387882 -9.64127e-19)
(6.08372 2.38343 4.67734e-19)
(6.09612 2.36965 -6.35013e-19)
(6.06077 2.37268 -1.34927e-19)
(6.52494 -2.00873 4.24266e-20)
(7.11822 -1.40633 0)
(8.0638 -4.20956 1.31822e-18)
(6.88379 -1.41381 2.49714e-20)
(6.76911 -1.48661 2.80847e-20)
(7.76954 0.645673 1.62623e-19)
(6.94512 -4.40463 -2.36896e-21)
(6.87135 -4.42723 0)
(6.09634 -3.36379 7.19512e-19)
(7.56579 -4.47857 3.82613e-19)
(6.48851 -3.11485 1.52588e-19)
(6.78721 -4.51835 1.0275e-18)
(8.30507 -1.31344 -9.25365e-20)
(3.3334 -3.2467 -1.90652e-18)
(3.39845 -3.29947 -6.7581e-21)
(1.71192 -1.44183 1.62285e-17)
(6.88512 -4.40983 3.51491e-19)
(6.86091 -4.39587 0)
(6.92189 -4.39645 -3.91814e-19)
(2.83158 0.72301 -9.91133e-18)
(4.56436 0.897022 -4.3339e-19)
(4.56198 0.95575 2.24479e-18)
(6.30457 -1.65829 0)
(6.83754 -4.43077 9.0856e-19)
(8.04086 -0.849704 -1.55854e-19)
(8.13525 -0.801727 -1.8596e-19)
(6.4098 -0.438213 -1.73448e-19)
(7.53512 0.828541 1.28364e-19)
(5.45019 3.01164 -4.85773e-19)
(3.18283 0.539551 0)
(7.54948 -3.93666 0)
(6.46043 1.59695 4.53402e-18)
(6.66844 -2.13449 7.13424e-24)
(5.90477 2.73319 1.18502e-18)
(5.90834 2.8703 -5.28934e-19)
(6.64565 -1.03628 0)
(6.63047 -1.11986 3.15738e-20)
(6.55833 -1.15768 -1.03623e-19)
(7.27437 -4.49029 1.59446e-19)
(3.36109 -1.51076 -5.56735e-18)
(6.41482 2.72323 -1.02817e-19)
(6.29513 2.83076 4.74625e-19)
(2.30147 -0.988628 -1.30636e-17)
(6.19094 2.73598 1.39297e-18)
(5.93228 -3.78769 0)
(6.25785 2.96573 6.26093e-20)
(6.21773 3.07423 -4.86483e-20)
(7.06305 -4.40641 -6.36427e-19)
(5.14004 -0.402503 -1.15996e-18)
(6.32941 3.2383 0)
(6.2962 3.29623 5.64548e-21)
(4.11037 0.23297 -1.27756e-18)
(3.51331 -2.75584 1.33619e-18)
(7.79398 0.55073 5.35902e-19)
(3.99583 1.94808 -2.44821e-20)
(5.91484 -4.26817 7.8261e-19)
(5.82256 -4.25677 -1.76253e-18)
(6.41482 2.56772 -2.82267e-20)
(6.28258 -0.545283 0)
(4.18141 -0.163436 -1.64466e-19)
(4.21655 -0.270607 0)
(4.1651 -0.254877 1.54428e-19)
(4.24111 1.46337 -1.75604e-18)
(6.38617 -1.65377 -1.44547e-19)
(6.50078 -1.611 0)
(6.69807 -1.58849 1.22604e-20)
(6.71292 -1.50539 -2.83183e-20)
(7.25037 -1.54684 8.0786e-20)
(7.32267 -1.49537 -2.81226e-19)
(8.01173 -0.812781 -1.58553e-19)
(7.93463 -0.820774 1.58195e-19)
(8.04036 -0.715499 0)
(4.32726 0.665606 -4.48708e-21)
(4.2758 0.623401 -2.18107e-18)
(3.88543 0.438465 5.40159e-18)
(6.74405 -1.25999 6.94191e-21)
(6.71959 -1.34964 0)
(6.99016 -4.42727 3.43439e-19)
(7.03408 -4.42288 -3.33077e-19)
(6.47203 -4.25165 -4.04899e-18)
(6.4985 -4.29416 2.03541e-18)
(5.6791 -4.21317 -8.76687e-19)
(5.39322 -4.0066 -7.87617e-19)
(7.71706 0.829312 4.9713e-19)
(6.15505 -3.7857 -1.69719e-18)
(6.04598 -3.74856 1.46533e-18)
(6.57723 -0.649015 -3.73223e-17)
(6.61371 -0.735999 -2.58821e-17)
(3.92903 -2.74542 4.4483e-20)
(3.85677 -2.7434 0)
(8.15937 -1.05046 8.1348e-19)