/*--------------------------------*- C++ -*----------------------------------*\
  =========                 |
  \\      /  F ield         | OpenFOAM: The Open Source CFD Toolbox
   \\    /   O peration     | Website:  https://openfoam.org
    \\  /    A nd           | Version:  6
     \\/     M anipulation  |
\*---------------------------------------------------------------------------*/
FoamFile
{
    version     2.0;
    format      ascii;
    class       volScalarField;
    location    "1600";
    object      nuTilda;
}
// * * * * * * * * * * * * * * * * * * * * * * * * * * * * * * * * * * * * * //

dimensions      [0 2 -1 0 0 0 0];

internalField   nonuniform List<scalar> 
29884
(
0.276342
0.225631
0.122062
0.155995
0.15636
0.129646
0.194492
0.263911
0.213457
0.141145
0.153475
0.141699
0.15303
0.287426
0.280054
0.19183
0.287352
0.266245
0.279537
0.172467
0.278046
0.118572
0.142525
0.140649
0.144303
0.155027
0.194382
0.219178
0.150191
0.253491
0.14866
0.162942
0.195304
0.185293
0.143752
0.147362
0.249425
0.166602
0.179344
0.187958
0.231653
0.18485
0.176332
0.200848
0.183851
0.166926
0.175626
0.176431
0.136633
0.170883
0.167684
0.174261
0.192922
0.275207
0.2633
0.267612
0.187087
0.284252
0.262164
0.266564
0.19858
0.190449
0.135278
0.171051
0.166635
0.172806
0.280475
0.204321
0.302645
0.211426
0.141248
0.149598
0.143864
0.10938
0.318004
0.280971
0.234146
0.231231
0.225947
0.21158
0.180443
0.197659
0.113443
0.142316
0.119195
0.0973511
0.148765
0.156972
0.139586
0.0721809
0.145042
0.156869
0.100622
0.0637109
0.151755
0.000398593
0.139829
0.139902
0.149681
0.0663432
0.139777
0.139243
0.169884
0.177374
0.153539
0.196425
0.0782478
0.076713
0.153792
0.138976
0.162755
0.000136199
0.135915
0.118817
0.141879
0.142057
0.149604
0.111846
0.147763
0.136976
0.139772
0.141127
0.161413
0.14007
0.136991
0.26213
0.225315
0.203692
0.301052
0.147688
0.143027
0.147274
0.254208
0.23756
0.129137
0.144108
0.165758
0.152221
0.163718
0.163874
0.155642
0.162016
0.173229
0.157302
0.170905
0.173977
0.160466
0.165441
0.178562
0.173868
0.171483
0.09486
0.083255
0.18364
0.248989
0.215677
0.199066
0.175226
0.229534
0.201358
0.189233
0.156102
0.154288
0.172926
0.00029983
0.000296764
0.204657
0.160435
0.139507
0.139488
0.21218
0.13921
0.139043
0.114732
0.117508
0.151827
0.144036
0.188963
0.142641
0.156017
0.145701
0.128999
0.131199
0.135182
0.117487
0.132525
0.139601
0.139234
0.155554
0.150284
0.155995
0.14153
0.136694
0.143534
0.146337
0.146729
0.141196
0.146816
0.151877
0.149793
0.218064
0.177393
0.15369
0.142321
0.150033
0.13629
0.144678
0.128272
0.13953
0.185209
0.174638
0.215556
0.219222
0.194864
0.257712
0.0435302
0.101022
0.0374755
0.112352
0.0392159
0.0372196
0.0444827
0.137491
0.119755
0.0855944
0.0348564
0.0408896
0.0542991
0.00640823
0.045252
0.046064
0.0377565
0.0479556
0.0373688
0.0395512
0.0467198
0.045249
0.138047
0.146707
0.0175267
0.0261616
0.000670236
0.0423341
0.0258889
0.0372345
0.123474
0.0400626
0.0381207
0.095558
0.0658278
0.0415126
0.078421
0.114626
0.111405
0.0374384
0.0373731
0.0445028
0.0418493
0.0819283
0.0868812
0.0596614
0.102886
0.0174412
0.00094503
0.0826238
0.0337956
0.0437748
0.122841
0.122503
0.0337254
0.0874236
0.0888549
0.0474198
0.0302372
0.027052
0.0769542
0.0717108
0.0544195
0.0578241
0.022184
0.152931
0.0459489
0.129582
0.0905931
0.138267
0.116832
0.116596
0.0278761
0.000247173
0.137793
0.0488567
0.0463735
0.0472725
0.0198081
0.0351082
0.0355594
0.108591
0.0461663
0.046012
0.0285851
0.0560947
0.0415511
0.0429882
0.0418799
0.0538801
0.0599302
0.0756321
0.131601
0.111237
0.11216
0.112882
0.110395
0.0422307
0.0137359
0.0148788
0.0378104
0.0407295
0.0431544
0.0469349
0.0443955
0.0554611
0.0639411
0.0586778
0.0588389
0.0393141
0.0897097
0.0411378
0.0422644
0.0443976
0.039211
0.111313
0.112843
0.112981
0.111395
0.0419484
0.0405163
0.137695
0.0816057
0.0479243
0.0461593
0.0443434
0.121309
0.0424425
0.111783
0.135742
0.0467542
0.0507078
0.0490199
0.0483938
0.0723906
0.0715944
0.0655098
0.0873898
0.0883345
0.0859923
0.0627676
0.0572576
0.0543555
0.0555045
0.057864
0.0635834
0.0739426
0.132657
0.121325
0.110047
0.110232
0.12063
0.133083
0.000474686
0.0406156
0.0443512
0.0426883
0.13706
0.144388
0.129504
0.100224
0.095678
0.0451923
0.0359097
0.0376624
0.0347962
0.11722
0.126873
0.122691
0.13159
0.032292
0.0366126
0.0342888
0.0343817
0.0892257
0.0854525
0.0837599
0.0913467
0.0390379
0.0403069
0.0410931
0.0437072
0.0424958
0.0359211
0.0304983
0.0833994
0.0710981
0.0925019
0.0849948
0.0883482
0.0899189
0.0200651
0.137256
0.138484
0.139458
0.138713
0.0406209
0.042325
0.0478846
0.0471404
0.0451492
0.0597887
0.06027
0.0341748
0.038921
0.0394368
0.0138995
0.0535593
0.0569786
0.0506728
0.0719889
0.0796354
0.0740565
0.0765603
0.0503293
0.0555774
0.0533846
0.0524347
0.130054
0.064538
0.0620978
0.0667168
0.060535
0.0420951
0.044085
0.0391611
0.0409604
0.0406936
0.0392716
0.151349
0.150021
0.135427
0.0444162
0.0427486
0.044374
0.0421363
0.122068
0.137932
0.0756875
0.0852905
0.130615
0.145329
0.139453
0.130518
0.15367
0.00588165
0.124289
0.125703
0.0758531
0.0323846
0.0340061
0.0353686
0.0316093
0.0818696
0.0907512
0.0867551
0.086318
0.137946
0.13776
0.138015
0.139672
0.139612
0.165856
0.151218
0.157608
0.159009
0.14059
0.144576
0.142497
0.142438
0.0254605
0.0239288
0.0227952
0.0259033
0.104229
0.103086
0.106708
0.044982
0.0421796
0.0422176
0.0446788
0.136954
0.134704
0.136209
0.000669398
0.00439252
0.138675
0.0107354
0.119885
0.139543
0.138718
0.000935277
0.00128528
0.139035
0.139055
0.139226
0.13887
0.0594881
0.138508
0.121588
0.000274529
0.000323874
0.137316
0.0355684
0.229789
0.139321
0.255903
0.12632
0.140694
0.138865
0.000654954
0.141467
0.134199
0.140304
0.137791
0.0458684
0.122275
0.137961
0.12325
0.134821
0.144583
0.129657
0.124463
0.170462
0.210879
0.240727
0.103979
0.103664
0.139054
0.139035
0.139751
0.139594
0.130154
0.00576234
0.128526
0.121835
0.104426
0.139126
0.113403
0.139116
0.139096
0.139064
0.00272233
0.138413
0.138628
0.0446194
0.0507236
0.0506529
0.122638
0.243804
0.209486
0.123233
0.119329
0.123708
0.102036
0.107269
0.127673
0.128423
0.184424
0.204843
0.128514
0.252064
0.138239
0.13834
0.253179
0.207074
0.000862377
0.126609
0.261403
0.0962957
0.14182
0.142992
0.000373562
0.0763157
0.0699975
0.137489
0.139577
0.139369
0.108923
0.121092
0.131277
0.129556
0.0399857
0.0399002
0.144052
0.14148
0.145011
0.139528
0.13927
0.00101385
0.13893
0.13734
0.136089
0.13781
0.13807
0.13829
0.183993
0.133351
0.136269
0.130156
0.132756
0.160406
0.166215
0.199389
0.177086
0.121035
0.137557
0.13347
0.141488
0.135068
0.126088
0.145766
0.159887
0.150049
0.14669
0.123367
0.11951
0.0567859
0.0522177
0.0483092
0.038866
0.139018
0.140663
0.142135
0.253613
0.194631
0.0872493
0.0935523
0.20082
0.172023
0.196863
0.145546
0.159307
0.153786
0.164529
0.234714
0.189103
0.181588
0.0436346
0.0435639
0.138768
0.138572
0.139564
0.138295
0.157131
0.111447
0.114781
0.118433
0.137583
0.13819
0.137562
0.137647
0.13724
0.139676
0.162106
0.153541
0.132957
0.139647
0.14258
0.145241
0.135687
0.136276
0.212147
0.267791
0.237947
0.1093
0.113629
0.116089
0.00430109
0.00469887
0.136159
0.133535
0.0654311
0.0612378
0.165913
0.168768
0.162046
0.0320239
0.030361
0.0574088
0.0569176
0.0379375
0.0388312
0.0438086
0.0776683
0.0733714
0.0759249
0.0293231
0.0658703
0.00607698
0.0423909
0.0179773
0.0608621
0.0347991
0.00661457
0.0500403
0.0347011
0.00780803
0.00664429
0.00708716
0.0896955
0.0900345
0.0721522
0.062793
0.0631251
0.0772119
0.050948
0.0500745
0.0164499
0.0755754
0.0747981
0.0541048
0.0558895
0.0558518
0.0621863
0.0610639
0.0613203
0.0288787
0.0756041
0.0754398
0.0108054
0.00281998
0.0351952
0.037009
0.0329407
0.0945366
0.0947424
0.0256614
0.0344099
0.0267103
0.0817612
0.0769761
0.0646376
0.0104016
0.0490147
0.049238
0.067027
0.0528865
0.0555425
0.0613903
0.0594232
0.0513636
0.0944565
0.0640569
0.0325542
0.0653211
0.0132357
0.0158431
0.106461
0.0977543
0.0261443
0.0674103
0.0239197
0.0457815
0.0156826
0.0605517
0.0626274
0.0926008
0.0015618
0.0453967
0.0711795
0.0722804
0.0465606
0.0455324
0.0748246
0.0478139
0.0482018
0.046385
0.00154244
0.0676728
0.0365811
0.0373154
0.0221044
0.0675643
0.0674232
0.0406617
0.0423276
0.0313263
0.0318919
0.0637894
0.0498001
0.0382342
0.0764215
0.0735515
0.10459
0.0446409
0.00840867
0.0648475
0.0647909
0.035389
0.0524389
0.0547011
0.0109508
0.00164156
0.0474843
0.0348112
0.063958
0.0636505
0.0413914
0.0387897
0.0511547
0.0517481
0.0374844
0.0093472
0.0473866
0.0387597
0.0383229
0.0293725
0.0576406
0.0355394
0.00144097
0.025029
0.0888385
0.00581769
0.00585159
0.0960318
0.0960666
0.118781
0.056576
0.0724058
0.00952356
0.0786686
0.0672755
0.0717201
0.0472429
0.0352771
0.0590941
0.0398133
0.0376787
0.0794969
0.00674987
0.0134228
0.0518205
0.0642192
0.0704571
0.0467958
0.0493327
0.0556341
0.0775056
0.0571257
0.0567194
0.0500771
0.0714503
0.0670339
0.0654033
0.0557959
0.0532789
0.0402134
0.0363544
0.0349397
0.0342764
0.0536528
0.0690003
0.0339995
0.0430628
0.0414539
0.0648679
0.0828897
0.0473267
0.0348582
0.0615845
0.0625851
0.0457252
0.136201
0.107659
0.0563682
0.0571741
0.0554358
0.085146
0.0387675
0.0681337
0.0451104
0.0761832
0.0760405
0.0346199
0.0623627
0.0234722
0.082294
0.0426276
0.0620817
0.0629916
0.0436211
0.0560608
0.0556467
0.0401144
0.135317
0.0874382
0.0174841
0.0170801
0.0516821
0.0700317
0.0690101
0.0837245
0.0786956
0.0770071
0.0324786
0.0409093
0.0384584
0.0104801
0.0534859
0.0536798
0.0547138
0.074251
0.0744848
0.0728205
0.0726964
0.0522421
0.0515871
0.0291698
0.0637311
0.0648012
0.0638948
0.0437816
0.0708121
0.0140787
0.0563968
0.0396972
0.036426
0.0193793
0.0665468
0.0513075
0.0850919
0.0859698
0.034092
0.0373149
0.0670635
0.0548969
0.0252774
0.0869
0.0872082
0.0382123
0.0602499
0.0376898
0.00506868
0.125964
0.124273
0.0660103
0.0726559
0.0736907
0.0820897
0.0831136
0.0678006
0.103584
0.0198538
0.0234074
0.076592
0.0795107
0.0733624
0.059696
0.0659989
0.0620349
0.0633983
0.0419953
0.0399235
0.0896189
0.0900253
0.0537305
0.0310793
0.0309486
0.0642938
0.0647275
0.0161865
0.0110128
0.00790801
0.0573747
0.0446357
0.0667996
0.0676767
0.0048626
0.00420081
0.06321
0.0630257
0.0639844
0.046035
0.0437367
0.0444707
0.0512978
0.0670387
0.0375995
0.0371812
0.0393137
0.016545
0.0173551
0.106272
0.0645254
0.018703
0.0178527
0.0691211
0.0688156
0.0499783
0.0497472
0.0503101
0.051749
0.0513331
0.00446738
0.0441714
0.0583792
0.105895
0.0121374
0.0120393
0.0170992
0.0345037
0.042333
0.0395499
0.0752122
0.035227
0.0944328
0.0957402
0.115738
0.110024
0.0495961
0.0343815
0.0351047
0.0388734
0.040223
0.100677
0.100113
0.0988881
0.0404728
0.0441745
0.0416629
0.0113739
0.0168123
0.0629001
0.0234082
0.024115
0.052333
0.0532765
0.0909472
0.0506129
0.051423
0.0444154
0.0392161
0.066754
0.0670015
0.0662053
0.0675691
0.06833
0.0517986
0.0705073
0.00687351
0.0207977
0.0240636
0.0148925
0.0152101
0.0498513
0.0545061
0.0400342
0.0421473
0.0580885
0.0581007
0.0580361
0.0587902
0.0571566
0.048873
0.0475455
0.0335953
0.0362665
0.0342515
0.0662425
0.0667284
0.065547
0.00418765
0.065443
0.106195
0.103609
0.0655084
0.0647046
0.0656616
0.0638795
0.0649968
0.0399694
0.0420239
0.0413291
0.0405934
0.058407
0.0541211
0.0425889
0.0951014
0.0945926
0.0944219
0.0605465
0.088574
0.0300168
0.0232484
0.020389
0.0311713
0.0292664
0.0334018
0.105557
0.0545365
0.0551585
0.0745326
0.107033
0.104151
0.0599454
0.0967062
0.050439
0.0490102
0.0501482
0.0438457
0.0425069
0.0447189
0.0853099
0.0452486
0.0718335
0.0719728
0.104624
0.0433678
0.0774452
0.0772129
0.0773488
0.0381131
0.000964076
0.0483651
0.0489431
0.0474852
0.0121622
0.000411098
0.102217
0.0525805
0.107925
0.0494993
0.0504123
0.0782087
0.0573177
0.0795716
0.112553
0.0156069
0.0763782
0.0760328
0.0787429
0.0327087
0.101221
0.0999004
0.102162
0.0659584
0.0665043
0.000673026
0.0506511
0.0495802
0.100194
0.102912
0.0981812
0.000777543
0.000800904
0.0922476
0.0238202
0.0203575
0.0472069
0.0492726
0.0486618
0.0477713
0.0878888
0.0301682
0.0291675
0.0459892
0.000611604
0.071222
0.0714887
0.0805141
0.0792816
0.0645348
0.0170236
0.0646072
0.0631838
0.0983958
0.0986743
0.0171436
0.0861588
0.0868352
0.0868207
0.0604509
0.0604555
0.0740648
0.0872816
0.0610089
0.0544471
0.00198816
0.0435674
0.0611548
0.000572452
0.0359089
0.0918568
0.0546144
0.00536488
0.0486144
0.0471944
0.0609499
0.0618673
0.0876728
0.0836686
0.0590532
0.059896
0.056321
0.0777261
0.0789046
0.0772713
0.0771979
0.0766696
0.000950859
0.0240079
0.000510989
0.0572116
0.00519651
0.136
0.136211
0.136317
0.135978
0.0659028
0.0556839
0.0557151
0.137801
0.138133
0.0574069
0.0788077
0.0772252
0.0770462
0.045136
0.0608388
0.0678341
0.0695604
0.0935887
0.0897554
0.0401906
0.0376085
0.038211
0.000540615
0.0345024
0.0355005
0.0363576
0.0338396
0.0763757
0.0764245
0.0327411
0.0936971
0.0952214
0.0771925
0.0457823
0.0461807
0.043922
0.0445648
0.0428266
0.0458679
0.028811
0.0281005
0.128003
0.0483425
0.0377205
0.0374207
0.0652131
0.0660151
0.0927358
0.092758
0.0934928
0.0920388
0.0729358
0.0728618
0.0623864
0.0479878
0.0481724
0.0477161
0.0984946
0.0962678
0.00032578
0.0445487
0.0453171
0.0164185
0.0140296
0.000446355
0.000656715
0.000629402
0.0399677
0.0393722
0.0084455
0.00882314
0.0939335
0.0764597
0.0859155
0.0487826
0.0393239
0.016273
0.015656
0.0177789
0.0473532
0.0463973
0.047592
0.0465519
0.000450968
0.000767052
0.000795115
0.00117078
0.00938892
0.0126707
0.0347971
0.0337429
0.000854643
0.0445952
0.0259599
0.0922484
0.0920196
0.0945623
0.0912646
0.0919514
0.0909737
0.105366
0.106914
0.10425
0.102531
0.072594
0.0421965
0.0442139
0.0417723
0.0528704
0.0535223
0.0511412
0.116369
0.105259
0.110253
0.0945621
0.0954658
0.0955382
0.0745648
0.0709853
0.0710058
0.0702212
0.0680566
0.0722957
0.0512043
0.0698465
0.0691688
0.069991
0.000419353
0.000694943
0.0895629
0.090447
0.0899729
0.0900026
0.036164
0.0667315
0.067106
0.0659873
0.0918483
0.0931502
0.0935717
0.091297
0.0576928
0.0581366
0.0566961
0.157375
0.0395803
0.0466255
0.0469907
0.0463158
0.0474075
0.0784953
0.0844887
0.0615159
0.0622505
0.0665974
0.0655549
0.0259666
0.128409
0.034684
0.0332282
0.10558
0.000371705
0.0412338
0.0494829
0.0669368
0.067388
0.0664956
0.0836933
0.0846799
0.00800864
0.0453986
0.0449166
0.0467344
0.0323131
0.0337876
0.0300083
0.0362263
0.0386266
0.0379628
0.00469491
0.00453301
0.0485588
0.0492942
0.063518
0.0632347
0.0643465
0.000347852
0.0572129
0.000625968
0.064889
0.0471446
0.0456876
0.0469583
0.0454067
0.00162805
0.0478253
0.0489632
0.0484251
0.0703587
0.0519679
0.0608784
0.059394
0.0449613
0.0446647
0.0438584
0.0457286
0.0429246
0.039868
0.0418897
0.0405664
0.0429519
0.0411246
0.0429577
0.0449447
0.00107852
0.00432854
0.0901713
0.0905508
0.0897867
0.0908603
0.0552409
0.0558108
0.0561872
0.0356522
0.0452338
0.0452397
0.046885
0.0614551
0.0607611
0.0611395
0.0950532
0.0970082
0.0956931
0.0970376
0.0983232
0.0479015
0.0462028
0.0463166
0.0476957
0.103306
0.105088
0.104413
0.10384
0.0316188
0.0303414
0.0332559
0.0533621
0.0522628
0.0655621
0.0655764
0.0649224
0.0444275
0.0424669
0.0704955
0.072036
0.120662
0.119072
0.119369
0.120438
0.0818681
0.0784091
0.0795059
0.0439038
0.0456538
0.0318198
0.0294405
0.0290645
0.0174044
0.0584325
0.057377
0.0605589
0.0496909
0.0503524
0.0388805
0.0864011
0.0883456
0.0881451
0.0864259
0.00109609
0.0540975
0.055321
0.0544301
0.0549565
0.137042
0.1372
0.0554126
0.0537262
0.0544052
0.0547234
0.0525232
0.0527525
0.051259
0.0257044
0.0280537
0.025095
0.0474998
0.048826
0.047516
0.0488851
0.0534435
0.0686853
0.058925
0.0442371
0.0435491
0.0444968
0.0431886
0.00763192
0.0686655
0.00742647
0.00731831
0.092825
0.0921051
0.092169
0.0927175
0.0637475
0.0496159
0.0490802
0.0651169
0.0647818
0.0650839
0.101425
0.0857064
0.0485938
0.0492061
0.0479642
0.0401938
0.0366894
0.0380672
0.0386377
0.0371318
0.0769636
0.0763549
0.0108566
0.0132639
0.052595
0.0515659
0.0517659
0.00118004
0.0522308
0.0674052
0.0744051
0.0738746
0.075817
0.0621172
0.03891
0.0373248
0.0395893
0.11104
0.108419
0.109813
0.0456805
0.0454654
0.128527
0.129578
0.0367943
0.0378081
0.0386983
0.0991429
0.0954238
0.089406
0.0125211
0.0151625
0.0139101
0.0113154
0.0111215
0.0118782
0.00982824
0.0152486
0.0515401
0.0590495
0.0600861
0.0558967
0.055533
0.0568756
0.0638957
0.0632575
0.0510043
0.0508572
0.0924491
0.0929524
0.042465
0.0441728
0.104416
0.118933
0.0967271
0.097557
0.0837215
0.0860775
0.0822708
0.085904
0.0877971
0.0868302
0.0231462
0.027724
0.0602138
0.0589254
0.0594108
0.0597605
0.0739977
0.0431027
0.0437945
0.0444928
0.044899
0.0442674
0.04619
0.0428651
0.000848958
0.046614
0.0470211
0.0479583
0.0739941
0.0697875
0.0390098
0.0380845
0.0654878
0.0647756
0.065706
0.0761907
0.0824016
0.0508084
0.0505252
0.0508873
0.0505705
0.0334867
0.0925746
0.0915462
0.0414988
0.0408893
0.0419402
0.0403831
0.0619503
0.062583
0.0613272
0.00620738
0.00676593
0.00537496
0.0829979
0.0845723
0.0805238
0.040893
0.039733
0.046319
0.0445348
0.051531
0.0521964
0.0523597
0.063016
0.043279
0.0446949
0.044921
0.0798628
0.0423317
0.0406865
0.0413045
0.0417492
0.111266
0.109387
0.109526
0.111033
0.0723676
0.0431258
0.0444143
0.043058
0.0448716
0.0643155
0.0927056
0.0923442
0.0933942
0.0917531
0.0910677
0.0920376
0.0924982
0.0907434
0.0347268
0.0492499
0.0487646
0.0512563
0.0514341
0.000598669
0.00642078
0.070927
0.0704161
0.058594
0.0593657
0.0595364
0.0588896
0.0602821
0.049478
0.0486691
0.00678191
0.00817025
0.0559845
0.0545186
0.0555344
0.0550682
0.074397
0.0888357
0.0878785
0.0884585
0.00823516
0.0543049
0.0534043
0.0546231
0.053004
0.0409691
0.0421761
0.0410704
0.0419585
0.0847251
0.0843765
0.0837251
0.077001
0.0224886
0.0217204
0.0212927
0.0227586
0.0283306
0.0294867
0.0509551
0.0651498
0.0652259
0.0652759
0.0448816
0.0467261
0.0460354
0.0455502
0.0763793
0.076756
0.0553602
0.0563462
0.0562778
0.0553534
0.0396046
0.0447784
0.0446709
0.0413942
0.0245604
0.0219135
0.0422123
0.0434391
0.0726325
0.0720842
0.0727562
0.0987946
0.0981517
0.0977905
0.0329371
0.0316258
0.0323903
0.0572928
0.0577396
0.0582232
0.0567923
0.0348956
0.0435218
0.0430114
0.0442692
0.0422048
0.00436155
0.0371597
0.0348126
0.0382216
0.0574814
0.0583658
0.0583869
0.0573807
0.128169
0.0898764
0.0891464
0.0891763
0.089784
0.0589395
0.0599004
0.0588157
0.0358643
0.0917983
0.0911673
0.0918156
0.0565031
0.0580586
0.0296963
0.0328835
0.0314306
0.0479226
0.0470425
0.0481648
0.0690578
0.0368884
0.0751912
0.0507863
0.0466867
0.0887346
0.0880521
0.0913881
0.0100048
0.00841842
0.0111343
0.0606776
0.0474264
0.0484013
0.0466333
0.0309304
0.0301489
0.0877591
0.0853776
0.0860375
0.0872163
0.0915004
0.090969
0.0439008
0.0458543
0.0909941
0.0892815
0.0910469
0.0889951
0.123967
0.124382
0.0400954
0.0897389
0.0895592
0.0894543
0.0734999
0.0744659
0.0732375
0.0165799
0.0333352
0.0327101
0.0347899
0.0315297
0.0433106
0.0453794
0.0444194
0.04429
0.0474347
0.0456557
0.0465783
0.111017
0.0948008
0.110381
0.0992562
0.0243684
0.0804534
0.0795191
0.114119
0.115729
0.0464314
0.0455239
0.0452556
0.0465791
0.0910594
0.090347
0.12051
0.1187
0.0383177
0.0595652
0.0603553
0.0606991
0.0244199
0.021881
0.0237574
0.0218694
0.0286831
0.0314901
0.0461325
0.046962
0.0461653
0.0300062
0.0258464
0.0283308
0.0278792
0.0578443
0.0568223
0.108858
0.0990599
0.0397335
0.0419968
0.0413892
0.0398725
0.0615433
0.0179601
0.019133
0.0204963
0.0170907
0.107813
0.106057
0.108739
0.0337303
0.0352834
0.0353083
0.0358335
0.0347677
0.0363153
0.0745765
0.0776113
0.0239077
0.0248672
0.0956541
0.0651582
0.0902712
0.0890764
0.0828799
0.00385863
0.0684665
0.0677762
0.0682408
0.0461107
0.015603
0.0364493
0.082376
0.0729302
0.068507
0.0905191
0.0790919
0.0799402
0.0790382
0.0533333
0.0548466
0.000286019
0.0546932
0.0399455
0.114996
0.113062
0.113668
0.114429
0.0598406
0.0609348
0.060666
0.0600813
0.102845
0.103826
0.102146
0.104398
0.0377762
0.0383966
0.0389058
0.0371917
0.0642501
0.0637455
0.0643731
0.0635547
0.0441036
0.0448359
0.0426022
0.0301633
0.0353729
0.0444836
0.0487739
0.0474672
0.123595
0.122409
0.0555439
0.0266785
0.0944469
0.094987
0.0953907
0.0316483
0.0675061
0.066294
0.0649313
0.0686616
0.0656525
0.0630466
0.0620701
0.0623872
0.0627372
0.0481829
0.0447899
0.0470229
0.0456978
0.0884372
0.0880344
0.0886975
0.0877397
0.0762648
0.0746775
0.0751159
0.0758109
0.0668692
0.0669168
0.0672221
0.0665278
0.0325876
0.0305114
0.0320456
0.0309293
0.0422485
0.0410756
0.045892
0.0444143
0.0440081
0.0457307
0.114511
0.117276
0.115728
0.0729009
0.0473014
0.0459332
0.046428
0.0432136
0.0400025
0.0425346
0.0395984
0.0404488
0.038494
0.0392692
0.0250012
0.0636734
0.0631621
0.000272657
0.0477081
0.0492223
0.0480282
0.0488385
0.0671155
0.0523596
0.0618402
0.0400056
0.00422372
0.00441209
0.00423955
0.0448275
0.0455061
0.127946
0.0416615
0.0410785
0.0554285
0.0543865
0.0553511
0.0453543
0.0458096
0.0455486
0.04608
0.0500412
0.0508093
0.0503007
0.0584832
0.0603086
0.0420296
0.0439258
0.0427936
0.000243887
0.044941
0.0453185
0.109994
0.10849
0.0681222
0.0694262
0.0666283
0.0707442
0.0307311
0.0338187
0.0346891
0.0370349
0.118775
0.117624
0.047303
0.0470758
0.0479777
0.0464309
0.043141
0.0429284
0.0413375
0.110662
0.108104
0.109245
0.109451
0.085682
0.084842
0.0860048
0.0843736
0.0829408
0.0843124
0.0841861
0.0829668
0.0758128
0.0762013
0.0749124
0.0330288
0.0337182
0.0339731
0.0326562
0.0335279
0.035096
0.111421
0.0187837
0.0214637
0.0208286
0.00111426
0.0432138
0.0422413
0.0425133
0.0748012
0.073096
0.0810858
0.0819647
0.0807452
0.0822087
0.0239342
0.0215332
0.0866284
0.0863612
0.0858318
0.0871263
0.11664
0.117612
0.118072
0.11611
0.0446287
0.0454483
0.0440337
0.046146
0.0516522
0.0517834
0.0515528
0.0419325
0.0429625
0.0432285
0.0415413
0.0755238
0.0759899
0.0753255
0.0539533
0.0883744
0.0876091
0.0884901
0.0875625
0.0244136
0.0292676
0.0141838
0.0112985
0.0581846
0.0046178
0.00329349
0.00302133
0.0291876
0.0356903
0.0115754
0.000635896
0.000864343
0.000603028
0.000304506
0.0286445
0.000390523
0.000450388
0.0104052
0.0102627
0.0377985
0.011338
0.0103712
0.138817
0.0169485
0.128889
0.0144263
0.0304602
0.0304536
0.00751647
0.00052996
0.0814433
0.013992
0.00600524
0.00634997
0.00985789
0.105769
0.137051
0.0160399
0.0171075
0.0298906
0.00284062
0.0892499
0.13726
0.0600328
0.122623
0.119187
0.0496626
0.00336236
0.0150657
0.000401771
0.000592704
0.00056605
0.0248891
0.0233697
0.00682476
0.0252407
0.00278468
0.00326928
0.0231616
0.00063279
0.056434
0.0304447
0.138667
0.138546
0.000469314
0.0228514
0.0218492
0.0129346
0.00810883
0.0220056
0.0215911
0.0224117
0.0475312
0.049281
0.00677902
0.0504962
0.137525
0.13718
0.0213287
0.000568708
0.00518349
0.00416257
0.0477296
0.0121285
0.0185653
0.000496711
0.0195199
0.023792
0.13016
0.00313823
0.0153942
0.0133277
0.138391
0.114257
0.00429388
0.0803207
0.0379832
0.00777666
0.135177
0.0244954
0.00232538
0.0353184
0.0342219
0.00895473
0.0204257
0.0212531
0.0230659
0.0186875
0.0265012
0.0252237
0.0261219
0.0366367
0.00175396
0.0198344
0.0350109
0.136152
0.017448
0.118979
0.0152845
0.130291
0.000632939
0.0221873
0.0211169
0.0221338
0.0623031
0.0270312
0.0279015
0.00591778
0.000377583
0.00143535
0.00271193
0.0748994
0.0706382
0.0178046
0.0286335
0.0053981
0.00673145
0.00261204
0.0296707
0.0313375
0.151781
0.00219231
0.13722
0.137639
0.0539257
0.015509
0.0352174
0.0570088
0.0561572
0.034653
0.0331924
0.0347806
0.0284324
0.00828799
0.00410156
0.0372347
0.0157441
0.0219816
0.0304166
0.0309462
0.0289999
0.00521999
0.00827144
0.0467694
0.046172
0.0303628
0.0279783
0.0282118
0.035262
0.0364151
0.0516401
0.00387906
0.00396798
0.0468558
0.138574
0.00395078
0.00519686
0.0046528
0.00314636
0.00423881
0.00429384
0.00563197
0.0180177
0.00385407
0.00441982
0.00587259
0.00427649
0.00579249
0.0305944
0.0299069
0.0306425
0.0045155
0.00625478
0.0357221
0.000564765
0.000889243
0.0308522
0.00299827
0.0196305
0.0176517
0.0243477
0.023295
0.00772927
0.00865785
0.00555674
0.00722174
0.123336
0.00504866
0.0784702
0.0775602
0.0773417
0.0383346
0.0238003
0.0063001
0.0203499
0.00589983
0.131241
0.025417
0.00254808
0.0118887
0.011143
0.0136069
0.0100855
0.00685113
0.140006
0.0223979
0.0241833
0.00414101
0.00330256
0.0586252
0.0686056
0.155543
0.149804
0.00743895
0.0183058
0.138783
0.0222695
0.0223418
0.000581229
0.00784861
0.0143023
0.117655
0.120182
0.00892746
0.0508328
0.00955822
0.00829518
0.00943732
0.00439839
0.0446287
0.0467161
0.0484172
0.00122553
0.0352605
0.132196
0.129898
0.11497
0.0553406
0.0191279
0.0380132
0.0323415
0.066916
0.139189
0.139066
0.0226715
0.137505
0.00173697
0.00218312
0.00917434
0.025274
0.0117325
0.0410236
0.0410993
0.0396049
0.03968
0.00445996
0.00278356
0.00197662
0.159623
0.0516982
0.0116895
0.120971
0.129666
0.130209
0.036003
0.07207
0.0700315
0.166413
0.148321
0.00142207
0.00823838
0.058808
0.0578035
0.00665154
0.00608532
0.0308142
0.0300721
0.081659
0.07975
0.0519744
0.0540812
0.041907
0.0144002
0.0133451
0.0580258
0.0366565
0.0363526
0.0301148
0.028799
0.0356511
0.0167588
0.00478589
0.0250749
0.00485036
0.139851
0.0106695
0.0119167
0.0241411
0.0379543
0.0235832
0.023976
0.101123
0.0941724
0.109481
0.0242567
0.0548238
0.0148606
0.138151
0.0336101
0.00175283
0.0374098
0.00369702
0.00381306
0.137749
0.0305467
0.0304237
0.0155071
0.13773
0.0926284
0.0999
0.0221143
0.0381674
0.0387391
0.0785276
0.0793676
0.0361986
0.0333125
0.036202
0.0340883
0.0357402
0.0735856
0.0646246
0.13608
0.136602
0.0594957
0.059343
0.0677293
0.0072276
0.00619905
0.0709306
0.0166049
0.136804
0.0638837
0.0659535
0.0678295
0.0401271
0.0384379
0.0397607
0.113507
0.147126
0.139355
0.0693985
0.0681291
0.0687708
0.122471
0.00595426
0.0258062
0.0211406
0.0154263
0.0150983
0.0988406
0.0248428
0.0323615
0.0355393
0.0200267
0.170508
0.0130846
0.0387711
0.0143042
0.0185802
0.0104719
0.0141075
0.0144937
0.121715
0.124154
0.123094
0.0276623
0.0281156
0.0117026
0.0684799
0.0153327
0.0145494
0.0329775
0.0295587
0.0290958
0.0373323
0.0719817
0.0304417
0.0322852
0.133033
0.127027
0.00187201
0.00244122
0.138696
0.0164308
0.00821637
0.0125122
0.119039
0.117537
0.138559
0.110007
0.138666
0.132963
0.132201
0.02027
0.023659
0.126083
0.126977
0.124871
0.125486
0.0415979
0.0393967
0.0961928
0.0983906
0.125751
0.123542
0.0032171
0.118865
0.117765
0.0323418
0.138914
0.138745
0.13869
0.0904693
0.086381
0.137674
0.139693
0.138333
0.0559365
0.0250449
0.0266379
0.0265758
0.044592
0.0442516
0.0448437
0.154443
0.155486
0.0564814
0.0254351
0.0266717
0.15856
0.15619
0.0502753
0.0507573
0.028683
0.0314776
0.000417251
0.00266814
0.0515976
0.00864176
0.0102826
0.0109045
0.076326
0.000870232
0.00132333
0.0549051
0.0555053
0.0178109
0.0080692
0.00775318
0.00896723
0.00559883
0.0234702
0.0240257
0.026192
0.113256
0.114973
0.0186995
0.0141914
0.0152145
0.00621283
0.00705664
0.129516
0.127709
0.134738
0.14327
0.150883
0.109455
0.0404804
0.0398132
0.0339395
0.038
0.0366325
0.0536076
0.0630518
0.0438915
0.0427653
0.019595
0.0208544
0.138682
0.138608
0.242682
0.227109
0.0297434
0.00805293
0.0321504
0.0106531
0.0117557
0.0103327
0.0102098
0.0072
0.119457
0.0180367
0.0218671
0.0312249
0.0288219
0.0604175
0.0616953
0.038101
0.0372496
0.0345762
0.0320228
0.0168037
0.0104987
0.0277049
0.00862081
0.0338271
0.136651
0.0129517
0.0137753
0.144625
0.150486
0.027151
0.0209409
0.0187705
0.00950369
0.0387891
0.0400048
0.0506149
0.0401413
0.0396015
0.0593167
0.0242099
0.000587069
0.0411738
0.0417172
0.0166577
0.0130683
0.015576
0.0824899
0.0832734
0.0823633
0.049184
0.0681319
0.0664476
0.0700743
0.0685096
0.133675
0.0976049
0.0983342
0.031167
0.033187
0.0328882
0.0530311
0.0755103
0.01127
0.139918
0.139677
0.139885
0.135163
0.0445539
0.0208272
0.0224051
0.0290922
0.025824
0.0579665
0.0346746
0.0369048
0.0517282
0.0560928
0.0378593
0.0281191
0.0986632
0.104301
0.108746
0.0293092
0.0291273
0.0428378
0.0431421
0.0226621
0.0731842
0.071539
0.055222
0.128282
0.0378674
0.00536999
0.00603426
0.135325
0.0238823
0.0660524
0.00354981
0.0213124
0.0197854
0.0215189
0.0197346
0.0260561
0.045212
0.010152
0.00857845
0.00785883
0.095342
0.0328606
0.000967789
0.00156733
0.0656901
0.138271
0.0647765
0.065151
0.0400939
0.111796
0.106803
0.0196317
0.0204015
0.044951
0.0425725
0.0442718
0.06119
0.0210068
0.0220386
0.140027
0.140515
0.035901
0.0220324
0.0201801
0.0347647
0.138788
0.0918754
0.0899706
0.0368079
0.0723105
0.0327994
0.00301675
0.00241735
0.00507372
0.0453668
0.0839385
0.00348346
0.183263
0.00243557
0.00455656
0.00692856
0.00431947
0.0036351
0.0038132
0.00268591
0.00364185
0.129011
0.0365218
0.0380345
0.0203592
0.0355194
0.0640354
0.062796
0.139373
0.139501
0.139296
0.0714488
0.0951468
0.0936927
0.0680191
0.0659686
0.0635971
0.0308702
0.0309018
0.0668104
0.0649395
0.012626
0.0139258
0.0154653
0.145594
0.150646
0.138179
0.13798
0.0483334
0.120024
0.116247
0.0311206
0.0333378
0.137588
0.137265
0.00402403
0.0616572
0.0609422
0.139085
0.138809
0.00911041
0.133925
0.065965
0.072586
0.0557608
0.0253963
0.0205844
0.00394403
0.0232039
0.0938551
0.0706453
0.0712182
0.0149239
0.0178206
0.0189039
0.00260377
0.068901
0.0695582
0.0608256
0.124654
0.125165
0.126134
0.0385897
0.0425507
0.044323
0.0450126
0.0443142
0.0370822
0.105742
0.107408
0.0450735
0.0392579
0.0401028
0.0390115
0.04243
0.0432666
0.00133888
0.112707
0.113789
0.115809
0.0141569
0.0130226
0.0462681
0.0461481
0.136711
0.136675
0.0250458
0.0276168
0.126574
0.127418
0.0385758
0.0390111
0.0381286
0.231505
0.187755
0.0800664
0.0783359
0.0120976
0.0135533
0.121254
0.0431724
0.044615
0.13141
0.130617
0.1298
0.0216393
0.023577
0.138468
0.138181
0.0434488
0.0424004
0.0432826
0.0293837
0.0272155
0.108075
0.107695
0.106605
0.0110102
0.013992
0.0484738
0.048982
0.0149486
0.138074
0.138253
0.0411825
0.126899
0.123017
0.0167539
0.0624852
0.0657501
0.0350894
0.0354985
0.0366449
0.138266
0.118366
0.103333
0.109807
0.115187
0.0209541
0.0740319
0.138205
0.0204194
0.00189807
0.00338827
0.0434685
0.0431793
0.0150147
0.0704738
0.0359758
0.033316
0.120537
0.132468
0.0430079
0.0449495
0.0192821
0.0634012
0.0675612
0.013523
0.0415708
0.0408614
0.0647532
0.00474531
0.00478797
0.121652
0.0467228
0.0471608
0.0457502
0.035421
0.0407992
0.0367123
0.0494648
0.0506408
0.00673951
0.0514647
0.0508533
0.0414061
0.0396449
0.0395953
0.00818279
0.0072247
0.0907855
0.089802
0.0887629
0.0360884
0.0330062
0.052864
0.0467519
0.0485989
0.00351037
0.0341133
0.0968108
0.0968374