/*--------------------------------*- C++ -*----------------------------------*\
  =========                 |
  \\      /  F ield         | OpenFOAM: The Open Source CFD Toolbox
   \\    /   O peration     | Website:  https://openfoam.org
    \\  /    A nd           | Version:  6
     \\/     M anipulation  |
\*---------------------------------------------------------------------------*/
FoamFile
{
    version     2.0;
    format      ascii;
    class       volScalarField;
    location    "1600";
    object      p;
}
// * * * * * * * * * * * * * * * * * * * * * * * * * * * * * * * * * * * * * //

dimensions      [0 2 -2 0 0 0 0];

internalField   nonuniform List<scalar> 
29884
(
2.79259
0.097078
0.522454
-2.6597
-0.158954
2.46607
0.112748
-4.39583
-0.836334
1.06144
2.80404
0.647642
-1.2717
-2.36903
0.0348071
-1.92184
-0.323736
-2.19672
-4.43166
-2.95755
-3.46041
0.542319
0.277148
3.38236
-1.57605
1.13605
-0.748884
-1.34241
0.326057
0.403952
3.10732
2.68095
-0.769525
5.29022
1.8274
1.69302
0.844759
2.98487
1.7731
1.01465
0.740083
-1.70867
3.04932
5.0536
-3.63171
0.51869
-2.26089
2.12761
0.599777
2.44089
3.09645
-0.304502
1.21831
-0.846225
-2.91023
4.33267
-2.69435
-1.67116
-3.71
-0.636099
-0.313171
-0.796963
-0.312925
1.01422
2.07189
-1.95886
1.32953
1.56941
0.728295
1.44133
-0.429298
-1.16309
7.87217
0.692959
0.522446
1.48078
-2.77945
-1.32566
-2.60234
0.825911
2.12444
-3.28514
-0.331009
2.05689
-0.241298
15.1956
0.668528
-0.618168
0.171134
19.0091
0.549543
-2.32473
15.0204
20.3806
2.69531
24.5856
1.17466
1.28854
0.038584
20.3
1.54971
1.70831
0.161602
0.554561
0.366832
-1.86597
18.3475
18.8608
3.09364
1.63611
1.27634
24.5955
-0.0675383
-0.201868
-0.198292
1.90133
2.39758
0.0126086
3.83813
3.36356
0.814836
2.52179
2.0827
2.69392
-0.356509
3.51028
1.18752
1.46689
-0.723564
2.97428
3.19402
2.85679
-4.31783
-2.30405
-0.20184
-0.654028
2.20043
0.365697
0.346507
0.627519
0.356923
3.09158
1.92649
-1.94093
-2.10421
-1.87907
-1.54786
2.4538
1.94933
2.13088
2.66013
16.5557
17.9555
0.726465
0.623866
1.01113
0.571733
1.17029
0.846189
0.624375
0.946766
3.43182
3.61933
2.7338
25.5932
25.5051
-2.4849
-1.07736
1.0225
-5.92326
-2.84634
1.19386
1.21369
-0.377641
-0.222279
2.73582
3.04506
-2.90962
1.91497
1.76068
1.90721
5.33395
5.389
4.73631
-0.15772
-0.101045
1.21725
1.07883
1.31978
3.19959
0.571541
4.27206
4.85153
-0.339171
-0.423432
2.55192
2.59854
0.677991
-0.0938789
0.0926221
0.295179
2.54851
2.44204
1.6367
2.50279
3.93559
0.113415
-0.273859
-0.391935
-0.766289
0.571967
-0.588425
-1.78176
-3.58115
-1.63669
17.7394
2.54232
19.5838
-0.168853
21.683
21.9758
-11.2008
2.30317
0.13269
16.6343
22.075
19.1022
21.5392
12.1247
-7.20523
4.76223
19.5127
18.0457
-7.25576
-7.59706
18.2031
18.3536
2.73938
-3.66044
-3.40767
-4.03763
24.3215
18.2774
-6.47473
-4.2857
2.93138
18.4318
19.6765
-8.77311
-9.88359
-5.69033
0.581443
2.60166
2.44626
22.5639
22.2488
21.1994
21.584
-10.7184
-9.79802
-0.611731
2.96224
-6.5417
22.8583
2.20755
19.8385
-9.53877
2.2319
1.82953
19.9421
1.13177
1.27481
21.0318
19.4448
19.5505
17.6247
18.365
21.2523
20.9656
-5.03485
-0.809482
18.2436
1.65347
1.427
3.76012
2.85648
2.5081
-9.21935
25.7218
1.81429
22.1845
18.2126
18.1924
-5.79142
-9.54822
-9.59612
3.08353
18.1912
18.2684
-6.04773
-5.17737
18.8738
18.7247
18.8864
21.2333
17.4422
16.4236
6.54608
2.62216
2.86275
2.8582
3.14005
20.7989
-5.42045
-5.81857
-9.51249
-6.38242
18.7177
-10.7234
-9.81732
-10.3589
20.2487
20.809
21.024
-10.2707
1.32157
20.0455
20.6272
20.6896
21.0666
2.14396
1.73182
1.70666
1.74745
18.3229
18.264
2.19663
-3.89143
22.0889
22.0266
-7.4507
-3.23296
21.8883
8.05883
0.393965
22.3011
21.8738
22.0368
22.0669
19.5768
19.258
20.19
1.17575
1.27631
0.867664
20.6533
21.2306
21.3629
21.3554
21.2789
20.0887
19.1149
6.14418
0.408427
2.35996
2.2191
2.76134
2.64599
25.0097
22.8805
-6.67163
-5.8213
0.558684
0.683801
0.527973
2.94447
2.31682
-7.88838
-9.76339
-10.1925
-10.2054
11.7216
4.06509
4.03244
3.59285
-5.7585
-6.45028
-6.26681
-5.53425
16.4238
17.5919
18.6303
17.0957
-6.86584
-7.3855
-6.89619
18.3353
18.6599
-4.18625
-4.13407
17.7679
18.919
16.2814
17.588
16.6918
16.3993
19.4092
2.99369
3.21107
1.99174
2.2713
18.0777
17.8603
22.1378
22.311
22.5152
19.6538
-0.0608275
17.9543
17.4976
18.4452
-3.5315
20.6997
20.5539
21.4341
19.7093
19.1498
18.8949
18.4496
20.7453
20.3353
20.4776
19.9087
-4.00295
18.2749
19.2304
19.1921
19.4733
-4.57822
-5.04227
19.4294
19.1052
18.6185
18.8671
3.85147
3.4757
4.02446
-7.17217
-6.07393
-7.58089
-6.93289
-0.359316
-1.56257
14.3907
14.2229
1.15207
1.20159
1.18513
0.952471
-1.24695
25.2116
6.65825
5.93691
0.318946
-6.87619
-6.48832
-6.96168
-6.39326
16.3074
15.3725
15.6976
14.5752
1.5369
1.40234
1.54524
0.892427
0.93582
1.14243
0.722956
0.936191
0.863856
3.61244
3.4022
3.48012
3.88807
-6.01073
-5.44718
-6.04807
-6.24871
2.92052
2.59407
2.78302
22.0794
22.2931
22.1347
21.5896
4.15031
4.92945
4.38188
24.4132
25.2493
1.34627
24.8927
10.832
0.808749
0.780575
24.5101
24.3647
0.82043
0.848167
0.852513
1.30571
-8.42452
0.875683
-0.477835
24.6871
24.7185
2.31122
19.6662
-0.042736
0.957975
-4.17393
-5.88917
-1.86052
-2.07426
23.4252
-3.60248
-4.08392
-0.308979
1.95272
-5.62807
-0.0250477
0.171551
0.182603
0.316593
-1.83202
3.12961
3.18988
-2.76217
-2.65752
-2.83472
-0.123582
-0.375281
1.1832
1.22766
1.03865
0.984627
4.66843
23.1172
2.27212
2.2467
0.0281936
1.10288
-0.427486
0.909011
0.982543
1.01784
25.1627
1.37939
1.31942
-8.49187
-9.41194
-8.3717
-2.36642
-6.46418
-4.9429
-0.402535
-0.354449
-0.375783
14.6436
13.8318
-3.02589
-2.65366
-2.39456
-1.71254
7.26831
-4.67593
-1.04437
-0.87516
-2.43047
-2.72995
25.0376
0.279726
-1.16173
14.4704
-0.198397
0.125029
25.6782
18.7566
19.3907
2.15678
1.06163
1.13202
-7.37506
2.33979
6.34923
7.1181
22.3174
22.1327
3.95863
4.47239
4.27489
0.993625
0.939532
23.4464
1.23999
3.50779
3.72449
1.84145
1.64701
1.50439
2.37
5.66381
5.04209
6.22283
5.57455
2.78475
0.439767
1.60251
-0.828038
1.50934
0.233495
0.811061
0.93512
-5.59602
-6.70303
-1.56424
-0.173303
-0.553034
-1.05279
9.34132
10.5807
19.479
19.8913
20.2892
21.4867
0.792951
3.01792
2.81035
0.654505
1.29626
17.4282
16.7337
-3.72158
-3.98554
-3.25715
1.98736
0.894038
3.13456
3.48829
6.89252
3.73523
4.37342
-10.0165
-10.4818
1.08796
1.25702
1.063
1.29122
-2.60483
12.7945
12.0514
11.2317
1.58778
1.6882
1.80046
1.76402
1.90358
0.939766
2.88972
3.06618
-3.44635
-3.29729
-2.92173
-2.06757
-2.30891
-2.59265
-1.3414
0.562546
-1.94631
12.9642
12.0446
10.8964
23.3438
23.237
4.93898
5.38908
19.8196
20.0557
-0.677746
-1.17053
-0.412456
19.497
19.8046
8.1971
7.57249
22.8507
16.6052
-8.29561
7.22902
3.43232
5.43967
23.2756
4.50426
-24.8113
-8.64476
-19.1153
-1.8326
22.7891
-5.891
-12.1774
20.1115
-23.3249
-5.56487
-5.70005
4.40416
4.53622
3.73258
-0.809767
-1.37767
7.01621
-4.50176
-4.89894
-8.631
5.33728
4.77506
-4.91977
-4.14373
-3.77299
-1.35154
0.228485
-0.0157986
19.1317
3.7339
4.45379
-3.25692
24.3862
17.3685
17.0446
23.4409
-16.6826
4.06191
-15.475
-11.4255
23.7318
0.498874
-0.743291
3.01526
21.2798
-11.8947
-11.69
4.67695
-3.4241
-2.43409
-3.64613
-2.11616
-4.31154
2.76585
13.584
-12.4933
4.00076
18.7404
18.9049
1.83981
1.74182
-10.1244
-2.41062
20.5155
-7.78671
-8.85391
-1.49463
-0.43233
3.59095
-34.5668
-3.61549
-1.2681
2.59168
17.4256
17.4957
6.04081
-6.57106
-6.80397
-7.56197
-34.8641
0.255972
-10.8031
-10.5164
22.5506
0.969055
0.463168
22.8539
22.6736
-13.0693
-13.1287
0.274972
-12.0241
19.4062
-0.678502
-1.26604
2.10913
-7.47282
14.5489
-0.31838
-0.566434
-10.0956
-3.97964
-2.80714
-7.88096
25.275
16.0908
-11.8615
6.14047
5.77249
16.8278
17.0063
-4.49102
-4.16498
-13.9234
-25.2782
-6.06764
-10.2872
-10.4243
19.7486
-3.46429
-13.1847
23.5125
-18.4507
1.81713
-5.57993
-5.77157
3.05015
2.97339
-0.193624
16.255
4.07196
-25.495
-12.9659
-13.1498
2.78323
-10.5542
-2.15862
-0.649116
-14.1918
-14.4425
6.37947
16.9779
22.1115
-3.5855
2.25016
1.97974
16.4968
16.4178
-2.20473
7.63316
-1.58493
-1.47593
-6.41191
3.45463
0.564178
0.130112
8.16058
9.31924
19.1967
22.5522
22.7674
22.7372
-3.38562
-2.14417
-10.2673
18.0469
18.2425
13.4371
0.729551
15.7045
23.1048
15.1058
14.6193
-7.67296
2.11108
-1.17886
16.1697
16.123
-4.81015
0.994344
-11.695
4.46808
-12.1969
5.05469
4.90084
20.0999
1.34963
-16.5358
0.722883
-11.367
-0.900265
-0.00254589
16.2098
15.8288
15.6667
4.77917
4.24457
2.01179
-8.94652
-9.02725
16.8091
1.90769
1.52354
1.27926
-0.151072
-0.510003
3.25195
-9.51625
-10.3764
-24.8564
-3.6345
-3.0769
-2.91143
7.9259
7.71569
5.66991
5.9985
-3.90084
-4.31848
-14.227
3.54522
-2.52521
-2.81845
-11.9718
6.93675
-22.483
15.9517
-11.512
-11.2451
-20.3967
4.24398
-12.3817
1.49358
1.80798
-12.5168
-10.8034
0.213535
16.6596
-17.0872
4.39887
4.796
-11.899
15.1524
-10.9473
24.606
2.68896
3.1449
4.07677
2.21699
2.79246
0.305674
0.518449
1.6358
3.30373
-17.8051
-16.5846
6.06255
2.21383
1.41867
-0.156859
-1.71216
-2.05383
1.84836
-8.41087
-9.51455
4.8013
4.49189
-4.52117
-13.2669
-13.5507
2.70866
2.99476
24.3532
-6.76004
-6.35078
-1.97502
21.9767
-2.48988
-2.1798
-5.77475
-5.56221
1.46869
1.72792
2.56792
17.7117
18.2121
-11.2331
-5.16619
1.70013
-11.1981
-11.0158
-11.3308
19.1496
18.8833
-11.9749
2.4156
-19.1556
-19.5186
6.21047
5.73179
-12.1494
-11.9621
-12.191
16.16
16.3875
-5.65589
-11.9669
-3.53932
4.85076
-7.68772
-7.84125
18.6255
-11.9388
-8.24083
-9.99173
4.86666
23.2736
0.232993
-0.36954
2.89974
2.32906
-16.0858
-12.1237
-11.568
-10.0415
-9.22131
2.30984
2.28265
2.17079
-13.234
-12.438
18.574
-4.59553
-4.30819
1.78236
-8.28372
-8.03551
-4.17974
-3.62249
1.99373
16.2113
16.1487
-12.9879
-12.4335
4.06642
4.38678
3.92756
4.83178
5.54158
16.2821
6.53184
23.194
-8.81997
-9.2201
-8.61764
-8.54533
-7.63293
-8.7285
-11.862
-11.9702
-1.07446
-1.10001
-1.29337
-0.537085
-1.94304
-6.12402
-6.51022
22.9384
18.8679
-12.1421
0.498197
0.451817
0.0468638
12.827
-0.280827
1.97938
2.25358
0.588371
0.738117
1.04092
2.19372
2.96996
16.9689
16.6031
16.7296
17.0708
-2.84867
-3.42578
18.632
2.9242
2.88666
3.12465
-0.0718273
2.23676
17.9684
-4.8813
-4.34635
17.7663
18.169
17.4036
0.657032
-2.63846
-2.41403
-0.572428
1.52173
1.90866
-0.83601
3.09914
16.6559
16.7185
16.4952
-7.84781
-8.44599
-7.59544
0.73677
16.6328
4.47775
3.80685
-0.657223
22.4511
7.49567
7.34068
7.49948
-10.2632
18.9944
-12.375
17.3222
17.5127
24.1235
25.6208
2.3269
-4.61018
2.50663
-5.12288
-4.7445
-0.222714
15.6754
0.159198
4.41497
-20.2737
-0.239355
0.106118
0.319699
17.7031
2.28086
2.27949
2.35068
4.02852
4.80664
23.7616
17.4269
17.6166
-0.67872
-0.438838
-0.0800623
21.6293
22.3599
3.00963
18.091
18.2808
18.1823
17.6033
17.3501
17.5653
1.81703
18.4768
18.5798
-12.2795
24.1077
3.62354
3.95903
-0.137726
-0.0921135
5.12634
0.207455
-0.187793
-0.67727
2.16633
2.07981
-9.40373
1.08774
1.37103
1.43681
-0.015522
0.345899
8.08712
2.1611
6.63412
-2.73734
21.0968
22.6773
-1.35312
24.3311
-11.4543
3.86012
16.3561
-5.62153
17.6919
17.9797
14.8749
14.824
1.36519
0.651088
-2.296
-2.16243
-2.36794
-0.654815
-0.263261
-0.516309
6.59079
6.37864
21.1848
21.7878
24.5791
-1.47079
-6.40586
2.80803
3.02245
2.98131
3.42256
3.57027
16.3044
16.1458
1.39734
1.35141
-1.20034
-0.15507
-0.344236
-0.770631
17.8217
0.503231
1.43042
1.75074
2.16796
1.62745
-13.895
-14.3394
-13.8232
24.6263
17.6586
17.0429
17.8156
18.2777
5.91878
6.17396
20.8147
1.76106
1.98158
5.95129
-10.1983
-10.2206
-9.24614
16.7371
16.7275
16.5641
-9.79873
-9.9841
0.323049
-12.4747
19.5667
19.5039
13.7803
13.6219
2.32425
2.50819
2.15291
1.99534
4.79111
4.6001
14.7369
-10.7091
-11.157
-11.6894
3.02659
2.64595
25.637
18.5366
18.4454
-4.61338
-4.87036
24.9573
22.2215
22.6695
22.8444
22.8798
-3.7382
-4.17847
-14.9969
-13.47
-16.8322
-11.892
22.5651
-7.98137
-8.21015
-8.31886
-10.5518
-10.298
-10.2445
-9.36198
25.0844
25.1983
22.8826
22.7398
24.8072
22.2489
18.3369
18.0409
20.9181
-7.63661
23.7002
1.75423
1.55096
1.74481
2.8558
2.84636
2.3859
1.07495
1.25381
1.55923
2.06682
5.37621
-10.0473
-10.1321
-9.51423
16.491
16.0301
16.4675
1.00875
1.27673
0.917683
1.90883
2.06891
2.30722
7.95701
3.09625
3.39657
3.24582
-1.34256
-0.988038
-12.4525
2.96151
2.37891
2.53168
25.1403
24.9474
2.24098
2.2618
2.54931
2.85432
-11.3191
1.46974
1.39153
0.703329
1.48756
1.91298
1.99527
1.80487
-2.68524
-2.48594
-2.83767
-2.37814
-9.85909
-11.9754
-11.8874
-11.8473
-11.8976
18.313
17.5386
0.463066
1.18681
4.29431
3.39665
-17.5576
7.95162
-11.7913
-12.671
-5.92515
25.4136
-11.5712
-12.1212
4.17951
4.75008
3.389
0.546019
0.720164
23.0528
-7.671
-7.68539
-6.80301
-8.73688
-9.09621
-8.79558
-10.6555
-10.7575
-10.7597
-5.36362
-5.64733
17.7307
17.3719
-0.0254609
-0.151676
0.514729
25.3532
20.4297
23.7955
13.9108
-11.8572
-11.9785
-11.0295
-11.8826
-13.9529
17.4878
17.2389
17.0183
-7.63512
-6.83951
-7.40595
-6.70057
-11.5529
-11.312
-11.5099
-11.5988
22.5053
22.8419
22.4138
22.3928
-9.01094
-8.22813
-8.9123
-8.24913
13.7098
-5.86093
2.22853
2.10665
1.85123
2.18786
-2.34824
-1.92456
-2.09548
-11.6723
-10.8046
-10.3357
-10.9419
0.489117
0.645157
1.03559
2.06041
2.16438
1.89837
1.82952
1.49551
17.3739
17.8025
17.3052
16.9064
2.24806
2.11631
2.09316
2.14248
-9.69156
-9.95875
-10.1517
-4.66224
-5.42902
3.44955
3.78878
3.16758
-13.2862
-13.855
-1.57911
-1.42491
1.17761
1.65813
0.658752
1.23056
0.381557
-0.206772
0.33446
-6.01211
-6.23939
-7.12111
-7.49737
-7.00829
-6.93
15.7515
16.0025
-1.33454
17.5859
17.582
19.5635
0.618945
0.941832
1.29599
1.02225
17.5557
-3.4886
-2.67975
-2.61344
-1.9949
2.61943
2.27898
16.2952
16.532
16.1413
16.3556
-4.02863
-3.63595
-4.46436
-7.25335
-7.65766
-7.76004
17.6222
17.3704
18.1791
17.9998
-8.06326
4.9124
15.6869
-8.04136
-8.34168
-7.06496
-8.02919
-23.2169
5.95666
-22.7622
-22.3272
3.59423
3.88802
3.1584
3.36542
-2.56459
17.4367
17.7195
3.70684
3.48529
3.93756
0.0757422
-0.236303
-12.0353
-12.084
-12.0003
-9.25286
-8.94014
-9.19113
-8.74393
19.2179
5.67714
5.58609
-5.73392
-5.95746
16.7123
16.8902
16.7519
19.6561
-5.29284
4.69144
-0.947291
-1.22367
-1.03381
0.98919
-10.034
-10.5341
-9.55144
1.3939
1.50687
1.17457
18.1569
18.2443
2.6902
2.3151
-8.09854
-7.81919
-8.56669
4.89629
4.59578
5.02386
-6.94368
-7.18424
-6.8871
-7.23572
-7.43779
17.8372
17.3124
17.6152
-4.42044
15.4307
15.1724
-2.2195
-2.36177
-1.23976
2.13171
1.49242
-12.4718
-12.4248
3.77657
3.47791
18.9287
18.4738
4.38763
4.12915
2.85916
2.44782
1.38198
1.41004
0.823972
0.84733
1.30837
1.30354
17.7567
17.5369
0.172312
-0.380814
-0.553962
-0.193314
-1.21507
18.1812
18.0019
17.8893
22.5741
22.6894
22.3283
22.6975
16.9615
17.8628
17.8718
17.7073
-0.247692
-0.738729
18.6899
18.8074
3.08745
3.11137
3.5513
3.48245
3.33709
-12.3348
-12.2681
-12.2498
-12.1436
20.1596
2.53474
2.35252
19.3377
19.1889
18.889
19.2704
-0.673524
-0.624673
-1.09803
-5.99752
-6.17943
-5.72023
1.48389
1.97874
0.982862
17.7066
17.7931
17.9401
18.0739
-4.45523
-4.14396
-3.82688
14.55
-13.4405
-13.1578
-12.6709
0.0329018
-8.17895
-9.10646
-8.65052
-8.77811
-0.596585
-0.866754
-0.0388801
-0.44997
2.62785
-10.8774
-10.8516
-10.3544
-10.7891
2.61201
2.24925
2.00877
1.85231
1.64878
1.64602
1.94255
1.6642
1.33683
23.2054
17.6931
17.7902
-12.4388
-12.4387
24.3291
-6.25199
0.21833
-0.274428
-0.968556
-0.659585
-1.82349
-2.339
-1.67079
-11.8748
-11.3806
-27.313
-26.4471
15.561
15.8866
16.0916
16.2625
4.53135
2.58774
2.32172
2.69535
-25.8196
16.3048
16.4429
15.7421
15.8896
-9.39811
-9.06829
-8.77308
-8.12483
0.756055
0.807137
0.703221
4.52861
-9.28142
-9.01549
-9.34591
-9.37864
-14.3969
-13.7994
-12.4463
4.61156
4.38494
5.36835
18.1329
17.7256
17.7447
17.7056
8.93242
8.91331
-3.13555
-2.19012
-1.72554
-1.8155
18.7381
18.488
18.322
-8.95966
-16.1652
-17.576
19.0254
18.8676
4.71066
4.68362
4.91473
2.24109
2.21029
2.39862
-12.5679
-12.7657
-12.5635
15.8774
15.5739
15.7519
16.2323
22.5402
17.5665
17.9304
17.3717
17.5972
-5.67348
-10.9543
-5.34105
-5.77464
-1.67857
-1.50654
-0.594052
-0.821633
3.04018
2.25257
2.13258
2.08624
2.5641
-1.08632
0.00370222
-0.74202
19.6537
3.21728
3.07782
3.16491
-1.81087
-1.04054
-9.39533
-9.54267
-9.47301
-11.0737
-10.5135
-11.0964
5.86752
23.1142
4.36895
21.7733
21.8587
2.11553
1.60403
2.20508
-5.86752
-5.81017
-6.09021
0.472591
-11.5229
-11.8212
-11.658
18.6177
18.923
1.40277
1.06247
0.843567
1.14306
4.10391
4.14588
21.7825
21.8353
1.37503
1.0527
1.65551
1.49024
2.21955
2.53461
18.5741
4.20683
4.38338
4.15571
-1.45588
-0.97451
-1.40738
-21.2952
-8.07495
-8.62637
-8.80425
-8.33231
18.5016
18.033
17.8953
18.202
-5.95684
-6.94055
-6.3962
-11.7209
-12.9751
-16.3196
-13.13
-18.8537
-0.0345693
-0.195695
-1.2935
-1.0346
-6.9167
-7.47466
-6.92616
-6.13284
3.56287
3.35763
2.73992
3.0737
19.5309
15.3607
15.0639
15.3671
-6.93583
-6.5235
-6.77934
-6.99047
-14.3478
-12.9
-10.3786
-10.2254
-9.50625
-5.51091
-5.1556
-5.40198
-4.47992
15.5373
15.7598
0.572459
0.526151
-9.73706
-10.1798
-10.15
-10.1809
0.926119
-6.38523
-6.02414
-6.33053
-6.09443
1.96501
2.14476
2.10594
22.8363
17.7658
-11.8409
-11.2948
-11.3889
-10.6976
1.27367
1.51974
-10.7834
-10.7591
3.44291
19.0776
1.80394
1.52899
0.466523
-5.67385
5.38912
5.10296
5.22442
-7.17436
-6.48814
18.9075
-10.436
-11.6452
-10.8431
-13.7562
-0.192117
0.206106
-0.0964315
21.5673
21.5197
25.7261
-4.95674
18.8324
2.26087
2.36109
1.83547
2.16467
-0.551365
-0.0510593
0.68745
0.318782
2.20828
2.23903
2.32655
2.31503
-10.7994
-10.1805
-9.63224
-10.4723
2.08328
1.99656
3.11388
2.15456
-7.64995
-7.1429
-8.21781
-13.6995
23.2776
-7.93472
-11.6463
-11.1706
1.05079
1.0289
20.4801
-15.2968
2.23625
2.66596
2.37726
19.4194
-0.347694
-0.736054
-0.213265
0.430329
3.74831
1.04193
0.573952
1.48822
1.77484
21.7262
21.8603
21.161
21.4604
1.7894
1.89674
2.04437
1.52376
-0.574861
-0.908434
-1.23009
-0.804462
4.07373
4.28355
4.41225
4.04139
18.5156
18.4745
17.81
18.1471
18.0478
18.2112
-9.04991
-8.18418
-9.1441
-9.52014
-0.0637077
-0.18547
-0.491572
6.28974
-12.1349
-12.1765
-12.0091
-11.7438
-11.7296
-10.558
-12.0751
-12.8161
-13.2032
-13.5045
-15.8126
2.15197
1.65186
25.7386
18.172
17.8623
17.7379
17.5106
-14.7064
-13.7423
-13.3904
0.573612
-5.46248
-5.81963
-5.274
-11.608
-11.7266
1.96534
-11.2034
-11.1436
-3.41122
-3.9867
-4.33286
-9.71725
-8.71692
-8.56577
-9.40468
-12.2551
-12.314
-12.1918
7.88401
6.9527
-8.98267
-8.1045
-8.62863
25.751
-8.60608
-8.28031
0.947548
1.04216
-0.0801583
1.03043
0.862967
1.10824
-13.503
-12.2451
21.056
21.2738
0.488132
0.970766
17.8295
17.9649
17.9371
18.2075
-5.32505
-11.0695
-11.0527
4.73867
4.86605
4.18935
4.76949
0.498712
0.48539
0.893305
0.627645
0.266338
0.35267
0.786865
0.567983
-0.829644
-0.740459
-0.877458
-12.8107
-12.536
-11.7591
-12.3437
-10.5192
-10.7092
12.7931
-8.27222
-8.27104
-8.31946
4.79434
18.7013
18.9156
18.8569
-1.20562
-1.332
-0.0770509
0.0843422
0.0572698
0.499074
-10.194
-9.61036
1.49751
1.72337
1.14549
1.49668
1.32254
1.76522
1.82172
2.09793
18.0146
17.9853
18.4611
18.3271
-12.312
-12.3262
-12.28
19.1939
18.9511
18.5627
18.8693
4.69063
4.79437
4.45283
18.6629
1.87202
1.43068
1.45915
1.39315
-18.16
-16.094
-19.7932
24.753
-3.77833
24.9577
25.1471
25.2117
23.1534
-14.6849
23.0246
23.6969
23.7553
23.2498
25.7806
20.9636
25.5415
25.5717
24.7541
24.7954
-11.8437
22.1253
22.0768
0.429281
24.0631
-6.25844
21.7354
23.3335
23.3416
-6.82769
23.924
0.65586
24.5573
23.5795
23.5162
21.4649
-1.21548
-0.114244
21.2245
21.0895
-16.4903
24.9394
1.19434
2.00399
-1.25023
5.78927
6.74204
-7.37541
25.4451
22.6576
25.69
25.6364
25.588
-15.2533
-15.7824
25.2117
-15.7141
23.9749
23.8622
22.7197
24.2539
-4.32888
-16.3146
0.389633
0.512627
25.7989
-19.2287
-19.737
21.8267
-26.5754
20.8689
20.8661
20.8511
2.58076
2.46237
25.1986
-0.722242
1.26354
1.46736
-19.2646
22.9359
22.945
25.3851
4.30065
23.958
22.2209
25.4644
21.7131
22.9286
2.53578
23.8389
19.1748
19.2093
0.543637
6.65746
22.6965
17.5748
23.0731
24.997
2.09637
20.2875
25.2132
23.1453
23.1924
25.0721
24.3066
24.2441
23.621
24.0088
23.9281
21.3618
21.235
23.1805
20.2335
23.847
19.9242
0.722967
24.2838
11.2073
20.816
-1.19495
24.0576
23.499
23.6579
23.719
6.13987
21.1444
21.0281
-27.1804
25.5715
25.5864
23.881
-0.478708
-0.503973
-21.8393
23.7653
-28.2449
-27.312
24.2519
17.6603
17.873
-1.33606
18.756
0.0860281
0.0284281
18.1413
22.523
23.1613
-0.692648
-1.12997
23.2643
22.2691
3.7162
20.9439
24.8729
22.2645
19.506
22.5383
21.3057
-10.3454
-10.5593
-10.1961
25.2631
23.2826
-12.4661
-12.5449
3.9574
3.80249
-14.3678
-11.8049
-11.335
0.619437
24.6819
24.3394
-6.33444
1.28821
23.0338
22.9121
23.2012
25.0456
24.9698
22.8336
22.6706
23.9228
25.0768
22.634
22.4576
24.3519
24.2764
23.6253
23.6176
4.67762
22.3212
22.0799
23.3147
24.7961
24.3661
21.7442
25.4645
19.344
19.5275
23.2947
23.2205
23.4107
24.3745
21.5075
21.372
1.53327
21.9612
-0.27504
-0.402572
-0.395924
-13.4532
-2.61229
24.0725
-17.7377
23.5224
2.10482
19.6834
25.3365
22.6892
22.5298
22.5987
24.68
23.8175
0.954863
10.5009
9.69237
22.1079
22.2648
-1.13049
0.850649
-3.55932
-3.31544
23.5302
22.2312
0.237563
19.2052
19.5864
24.6382
23.186
-22.4579
7.8395
7.21019
22.7033
-4.89924
22.5837
22.3593
22.3983
25.3756
-6.72295
-7.76256
-7.57818
14.765
23.28
-0.669835
-0.966737
3.75847
0.261993
-20.9077
19.5772
20.03
0.818122
0.673083
0.510999
20.564
1.67031
25.5492
25.4938
24.8181
22.9029
-23.6628
22.7785
22.8112
22.8782
22.9514
22.5081
24.1016
24.1759
-2.1558
-6.52809
21.5854
8.60294
3.13828
3.15732
19.7302
-0.749163
-0.898859
-3.29029
-3.71187
25.2215
-26.251
-1.05503
-1.51851
23.0797
23.2096
20.7215
20.6406
0.075695
-0.135494
-0.440551
-0.736562
22.6412
-8.06708
-7.79126
1.15291
23.0572
23.0108
7.6215
23.6527
23.2166
22.3863
24.3408
20.228
23.3336
-2.09873
22.0646
21.8477
-18.5354
4.61396
20.2566
-18.6529
7.76413
8.4
7.65347
-18.5161
1.84622
4.67703
-4.91379
20.1462
25.1673
23.0992
23.3364
23.2019
-2.19885
23.0921
23.1254
20.558
-5.15515
-7.42371
-6.05701
20.5872
19.5615
19.4386
-0.484164
-0.215525
-14.0262
21.588
21.5125
21.8932
21.3121
-0.882332
-1.34257
3.39556
3.07879
-1.4218
-1.19729
0.676995
25.0098
25.0695
2.01963
24.2559
-6.64213
-1.5935
-1.44996
-1.16336
-11.3252
-10.93
-11.1147
0.106501
-4.1742
-4.75106
1.74107
0.913321
1.04301
0.15718
2.32241
-4.09517
-4.00655
24.2911
24.2613
0.357998
21.4181
-10.6378
-10.926
-9.47018
-2.43438
22.48
18.5832
22.2667
9.66102
24.8251
20.4879
20.4727
0.804019
0.819142
0.979082
21.079
21.027
24.6899
0.269913
22.0128
9.71217
20.5141
20.4829
19.9977
0.502293
-1.62793
-9.05247
-9.2924
-4.60954
-5.14671
24.1343
24.068
1.34542
21.7249
23.3708
24.5746
-0.46084
-0.899896
0.695456
-5.3088
0.603298
1.54308
1.40477
24.3301
20.6979
2.44902
2.34935
1.78371
2.16574
-4.44839
-3.36176
3.10573
3.12865
7.98688
8.77234
25.4438
0.595462
0.2438
-1.85467
0.158553
0.223043
0.225026
-0.823828
-0.383687
0.636176
0.549577
0.31759
-0.862659
20.4239
20.309
19.6013
-7.17869
-6.88346
-7.64642
-0.936703
-1.11329
-6.36696
-9.69188
-9.96999
-1.95077
-1.51271
-4.2297
-4.39107
19.4469
19.5789
24.9368
24.1958
3.99762
-6.31808
-6.50396
-6.47718
-0.723168
24.0937
23.9909
-2.98029
-2.478
22.1224
24.2457
22.6912
22.5968
24.9836
18.7213
18.9182
18.7399
0.81218
0.704825
21.9332
24.6686
24.6247
24.89
24.8623
7.3862
8.64076
-8.27805
-7.32625
-10.8718
1.73482
-8.89802
-8.41096
-4.739
-4.97437
-5.27507
-5.80784
-5.85409
-7.86785
-8.30744
21.786
21.6968
0.526602
0.612793
-0.839726
-6.1573
20.3198
24.5905
20.3629
24.5923
22.4874
22.6338
22.5624
25.0459
-6.31225
-2.90334
-3.23563
-3.50456
-3.48082
-3.12563
-2.9693
-13.1446
-13.5466
19.9568
6.92724
22.3108
21.9508
7.35397
21.0414
-12.3322
-0.0890201
23.9448
23.7439
-0.609776
-0.645933
20.2429
-7.01936
-6.93518
25.015
-10.3986
-9.67576
-5.13065
18.4881
18.4858
-2.3955
22.5648
24.6283
18.5509
18.571
19.97
19.875
19.6324
0.456842
0.546882
0.423054
-6.85403
-1.08609
-0.831354
1.36223
0.944056
2.56293
2.09538
2.22553
19.5756
19.3722
19.4084
-4.11789
-1.06484
24.3358
0.867951
0.873333
0.910581
1.63948
-11.3277
18.4953
19.1333
18.7959
19.4633
-4.12231
17.9558
17.8526
21.3118
20.9184
18.4994
4.92629
15.5155
15.0136
14.532
23.3907
23.2846
-3.74626
-4.0148
-1.58719
-1.46864
2.61064
-5.75985
2.05676
23.1487
25.2258
25.1679
1.82414
22.5439
-0.447482
-15.4207
18.9269
18.7256
18.6702
19.8968
20.0545
5.00955
-6.18078
-6.02986
-6.05592
-0.24113
23.1627
24.4461
24.0421
-0.284584
0.685405
3.12018
3.36154
18.0565
-0.802868
-1.36206
24.031
24.032
22.3899
22.4866
22.2566
-0.561311
23.8972
23.8812
0.858336
0.110743
17.69
22.2935
22.2416
20.1951
0.921703
2.20182
1.82608
19.7553
2.6597
18.3016
23.171
19.0078
19.2069
22.2909
-0.612215
22.9662
-3.54196
25.1055
20.1151
20.1711
25.3478
25.3837
25.3953
25.0446
22.8555
1.66671
22.8196
22.9562
-9.8794
19.4707
1.83757
0.987278
1.09994
1.00406
1.1466
-1.72389
1.8798
1.77968
-0.761241
-1.15546
-1.41361
20.2055
20.1406
-2.37189
-2.61372
-6.51305
-6.72595
-6.80425
-2.04323
-1.92145
1.51721
1.5746
-4.66806
9.5249
10.4606
17.5368
17.3675
1.89486
2.10232
-5.91783
0.762551
0.210368
0.772913
0.748539
22.01
5.28478
17.7425
17.2847
-3.95107
20.0206
-17.8828
24.962
0.260446
-0.523421
2.05598
2.27073
-5.26071
-5.32694
-5.05785
24.1606
15.1223
15.8564
16.4348
1.56776
1.33927
1.18487
23.0253
18.858
18.5181
18.4255
18.3784
2.99957
2.26544
2.25436
-7.93178
19.2863
19.2484
19.3541
18.056
17.9926
25.3521
1.17347
1.45701
1.20136
-8.24967
-8.11681
-9.62138
-8.90354
2.72445
2.90019
18.3839
18.1577
2.91016
2.9839
19.0914
18.8789
18.936
-3.48341
-3.11587
0.553811
0.447065
19.1948
19.3065
0.376599
-9.65255
-10.1046
1.78103
1.56816
1.93107
-8.61006
-8.95488
0.71845
0.668516
18.6515
18.9002
18.6191
-8.16484
-8.16465
0.110602
0.341389
-0.00470844
-4.22868
-3.90736
-11.3951
-11.6412
22.6036
1.63081
1.49932
-13.2459
4.73145
5.06957
20.8104
20.8611
20.4027
18.9757
19.111
23.0463
1.47243
0.484556
0.216625
0.815196
0.980421
21.7012
3.20586
-0.187585
-18.277
11.5432
12.0448
-7.91724
-7.7381
24.6514
-1.96967
5.53494
5.48862
3.84212
-10.4697
17.1836
16.7212
-9.77987
20.2453
19.8986
21.9063
18.4311
18.6887
-2.15348
-5.89045
-5.97325
3.17091
17.8434
17.8995
17.953
19.4007
19.9118
20.063
21.6168
21.7168
-4.10688
21.9802
21.8729
17.7316
18.3501
18.3512
24.8274
24.8842
1.60976
1.55782
1.45404
0.899018
0.307456
21.1117
21.578
21.2711
25.3388
-11.9777
2.02036
2.02841
2.49372
2.607
21.1129
3.74813
3.15115
3.30125
-5.91097
-3.46491
-2.33525
-6.2023
-6.31563
-0.0240805
0.0819156
-4.73681
-4.13141
-10.8853
-10.5471
-10.8272
1.16278
17.1554
17.5517
-0.375105
-0.555742
-0.064637
18.9538
18.7486
18.6386
-1.33092
-1.22789
-1.47201
-10.7531
-23.8018
4.90353
5.05751
-11.0068
-10.7067
0.931848
1.29255
18.557
-10.2701
-10.2296
2.57165
2.44765
-0.0930722
-0.0496043
6.14503
6.72958
7.70541
19.8114
19.7757
-14.7172
18.5505
18.689
1.61706
0.680199
1.07991
1.22907
0.630966
-4.79992
-2.91178
-3.80715
7.32683
8.11729
9.50179
8.99047
19.8292
20.0862
-1.37043
-1.4866
1.01084
1.21669
23.0212
25.2914
18.5291
18.4575
20.8598
-5.38934
-5.05909
-5.002
-0.808949
24.5323
16.8723
17.0122
3.19086
3.01992
20.9982
21.0034
-10.3593
-10.4164
1.39037
0.754451
0.494128
20.0647
20.2
4.11815
4.52085
19.3387
19.4447
22.6465
22.4892
-22.3265
0.212011
2.24517
2.15048
-3.16723
-5.21347
23.5092
-16.354
-3.86916
-9.97685
-10.2901
-3.60304
-2.88269
-5.50784
-5.46305
-0.620337
-0.546475
-0.99531
2.59319
2.82127
0.133127
0.642052
0.421769
24.0212
23.2226
25.4125
22.0553
22.1431
21.6191
22.0794
1.35601
1.86396
1.4099
-5.02952
-5.00745
2.63143
0.51645
0.375363
0.427675
-4.21185
-4.13738
13.957
21.7628
8.06182
18.0489
17.7306
-13.2799
7.93583
-1.2047
8.88345
-25.4779
11.8127
-12.2435
-14.2839
-11.9767
4.88146
5.36623
8.19779
6.21573
-12.0193
-9.14268
-8.68687
7.75562
8.76803
8.99014
12.0522
13.9011
-5.77805
-8.21259
6.98258
4.44322
8.78525
3.12274
-12.0976
-12.1974
10.8961
11.9234
3.5403
-18.4785
-22.6215
-9.93549
12.3356
-8.1422
3.12177
11.0155
11.0967
6.15157
6.20378
-7.55783
-8.03658
-9.17081
-12.6422
-12.5384
1.07797
-1.3822
12.4525
12.6845
3.17628
2.65825
13.997
-10.7695
13.0256
11.1818
1.03364
-2.82724
12.2628
6.08329
10.8056
2.23349
14.143
19.4782
5.68478
9.64508
7.37047
2.7875
9.67834
4.07125
4.40361
7.26986
7.15415
-14.5593
-14.8141
1.62043
-5.02514
-20.6034
5.92754
-5.69162
-8.27054
14.3547
-0.0738256
12.2169
-0.572674
-1.56111
-12.5997
-14.9978
-9.2723
-10.5373
0.367011
-12.0993
-12.0002
5.21648
-1.94439
-2.95964
-1.7085
-0.228677
0.969388
16.2685
-9.46317
-2.91379
-2.01035
-17.9425
22.5903
-4.72726
-30.4347
-23.3875
-26.4522
3.15315
-13.8599
-15.3612
11.692
10.6957
-8.98426
10.4191
-8.69572
-10.1485
0.409722
0.353935
0.313151
0.100101
-11.5587
1.11258
3.74662
-4.73983
10.8993
-0.531245
-1.62876
-15.4968
16.1995
7.25865
10.5989
7.19567
7.01813
-21.9572
-12.3879
10.1163
-18.8558
-6.12722
13.8412
14.1193
11.7546
12.73
-15.2788
4.22389
2.02922
1.12378
10.3793
10.134
8.90988
8.35205
9.04418
4.70608
11.6511
6.40001
-5.07905
-1.76701
-0.432318
-1.6863
-20.9123
15.8617
-4.16012
4.39034
4.64957
-11.7507
-13.1047
23.1846
-18.6143
-20.0712
17.2539
12.6117
-5.64618
2.37243
-5.49613
-6.00643
4.66823
12.2036
0.694563
-13.1329
1.93219
0.904884
2.2324
2.97806
16.1152
16.0688
-15.9004
0.81763
-5.94867
-5.75482
2.18571
-7.28181
-11.3021
11.8089
-0.166864
0.694481
13.9126
13.8469
7.50484
7.97312
2.40707
2.83631
-0.611065
-1.13823
-1.56833
16.0461
-4.88112
16.7711
16.5035
16.9243
-9.21311
-9.71132
-10.869
6.38236
-7.42208
13.6614
-7.16819
-6.15339
-7.49783
4.88798
-27.0402
-7.90911
10.0169
11.0628
10.7052
13.7051
12.992
12.4555
10.0078
9.97979
-12.9375
6.77414
12.002
11.3922
-7.24938
-28.1472
10.7587
-25.8738
-20.7849
3.27388
4.04078
5.04729
5.54814
-18.3691
2.1216
3.10207
3.86129
12.3552
11.5108
1.25914
-2.17685
-2.79159
-0.881849
-0.278868
-16.9258
-15.7293
2.15062
1.18054
12.7913
11.5507
11.1896
4.65996
5.37029
9.54905
8.43095
6.66111
9.21887
8.8288
8.02668
8.23802
8.47317
10.4576
2.95105
2.72256
2.66461
-4.68172
14.3616
7.89277
8.38754
12.2209
-5.91122
16.1683
0.0752852
0.244529
-13.1929
-2.80825
-2.10049
-2.85822
-11.5757
-11.354
-0.132697
3.53824
2.80247
-3.03706
-1.9387
17.1492
9.17215
2.58123
3.44785
-4.42413
-14.3047
8.00437
14.6411
14.7427
9.46355
9.1569
-0.532559
-1.09715
-1.71302
-1.02988
-0.439151
5.07147
13.3517
12.4955
4.54162
16.5605
16.9363
16.9248
13.3617
13.5684
5.86047
12.8782
4.59415
5.0885
-3.25908
-2.23134
11.6803
10.7179
2.46027
3.21576
9.69329
10.4321
-7.51185
1.34191
1.4658
1.42056
5.60864
-13.1209
-10.3026
5.46528
6.17628