/*--------------------------------*- C++ -*----------------------------------*\
  =========                 |
  \\      /  F ield         | OpenFOAM: The Open Source CFD Toolbox
   \\    /   O peration     | Website:  https://openfoam.org
    \\  /    A nd           | Version:  6
     \\/     M anipulation  |
\*---------------------------------------------------------------------------*/
FoamFile
{
    version     2.0;
    format      ascii;
    class       surfaceScalarField;
    location    "1600";
    object      phi;
}
// * * * * * * * * * * * * * * * * * * * * * * * * * * * * * * * * * * * * * //

dimensions      [0 3 -1 0 0 0 0];

internalField   nonuniform List<scalar> 
44611
(
1.52104
-2.1429
0.621862
1.52104
1.44609
-1.44609
1.93944
-0.493349
-1.31919
-0.707736
2.02693
-1.31919
-0.0920948
-2.1709
2.08659
-0.565553
1.29401
-1.29401
0.180631
1.85448
-2.17628
0.73019
2.37679
-0.340671
0.413103
-1.73229
-0.795685
-1.19881
0.795685
1.29091
-0.552186
-1.33597
0.552186
0.74182
-0.594146
-0.824373
0.824373
-1.17128
1.35191
-0.0104459
1.28965
-1.27921
-0.136999
-1.86053
1.99753
1.52247
-0.214989
-1.30748
1.21982
-1.21982
-1.09977
1.09977
-1.51174
1.51174
-1.19452
1.19452
1.50257
0.0198964
-1.9208
0.409058
-0.920301
-0.786278
1.70658
-1.62804
-1.26572
1.26572
0.124933
-1.42456
1.29963
-1.49373
1.49373
-1.27969
-0.219605
1.49929
-1.36999
1.36999
1.65516
-0.143423
-0.460641
1.51072
-1.05008
1.7213
-0.501476
1.3263
-0.214195
-1.1121
-0.700323
1.09751
-0.397188
1.18638
-1.46023
0.273854
-0.881153
0.881153
-1.14577
1.03964
0.106129
0.952373
-0.952373
1.19053
-1.32753
-2.2799
0.81159
-0.81159
1.01435
-1.22933
1.82594
-2.04092
-1.60623
-0.621643
-0.818711
-0.787518
-0.899117
0.899117
-1.04033
1.02988
1.929
0.0933119
-1.4633
0.104267
-0.299209
1.21493
1.16186
1.73229
0.165956
0.531929
-1.21579
2.0345
-1.4633
-0.982743
-0.477487
1.29977
-1.29977
0.904572
-0.420164
-0.484408
1.3306
-1.14555
-0.185045
-0.802483
-0.651585
1.45407
0.00102979
-0.0797009
0.0786711
1.6778
-0.388148
-1.6951
-0.165431
-0.356022
0.907246
-0.551224
-0.0383157
0.0450096
-0.00669396
-0.136629
-0.610632
0.747261
-1.1603
0.459977
0.0116127
0.0598185
-0.0714311
-0.0325505
0.00739345
0.0251571
0.856277
0.213055
-1.06933
-0.00202179
0.00202179
1.47499
0.524538
0.240542
1.23445
0.798716
0.879083
-0.0229844
-0.00956613
1.23256
-0.504464
-0.728093
0.917939
0.314618
-1.07054
-0.624561
-0.264191
-0.806345
-0.980583
-0.476548
-0.908783
1.38533
0.00411511
-0.0424308
-0.0086907
0.0341179
-0.0254272
-0.728078
0.853011
-0.649607
-0.285174
0.934781
-1.1729
0.953293
0.000411675
-0.000411673
0.0911031
0.816143
0.995675
0.650712
0.86311
0.467488
1.1593
-0.296189
-0.0777136
0.637066
-0.559352
-0.364323
-0.479205
0.843527
0.410333
-0.744458
0.334125
1.14031
0.859684
-0.7475
0.756224
-0.00872438
-0.792427
1.06628
-0.889726
0.19906
0.690665
-0.88831
-1.11656
-0.843495
-1.43641
1.10769
0.336638
-1.44432
0.927758
-0.0714811
-0.19968
0.746754
-0.547074
-0.955935
-1.08499
-1.43248
-0.849594
-1.12088
-1.61011
0.760513
-0.867976
1.27703
-0.345817
0.806449
-0.460631
-0.980479
0.174134
-0.419103
-0.536667
0.95577
-1.30935
0.890243
-0.264999
0.829807
-0.564808
-0.832512
-0.0762702
0.753537
-0.617492
0.830547
-0.893226
0.594016
0.0492636
-0.0376509
0.0362464
-0.0449371
0.595788
-0.809983
0.848536
-0.68258
-1.49256
0.681565
-0.792562
0.110997
0.810998
-0.706731
0.90099
-0.0907101
-0.81028
-1.40006
0.000961164
-0.000961165
0.000961162
1.06844
-1.06844
1.07183
-1.07183
-1.1544
1.36182
-0.207421
0.625472
-1.07777
0.452301
-0.295094
1.36693
-0.899344
0.58158
0.317765
-0.929519
0.0301751
0.831743
-0.623795
-0.207947
0.0292593
0.337167
-1.12959
-1.25374
1.25374
-0.440268
1.35821
-0.106617
-0.464077
0.00664022
0.457437
-0.153263
-0.310814
-0.642381
0.489118
0.371879
1.02259
1.4024
0.616125
-0.020141
0.973434
-0.0779995
0.931011
-1.24873
0.359687
-0.838891
-0.282695
-0.934354
0.33389
0.600464
-1.11971
0.185361
0.0899675
-0.799758
-0.963903
-0.315303
-1.45725
-0.727062
-0.232651
1.72638
1.06698
-1.20211
1.30824
-0.0631232
-0.681335
-1.05185
1.6953
-0.643448
0.0851914
-1.41039
1.35408
1.97594
-0.860316
0.860316
-1.64303
0.782715
-0.00565329
-0.00251466
0.00816795
-0.0255656
0.0302337
-0.00466809
-0.00667637
0.004108
0.00256837
0.0474746
-0.0573057
0.00983116
-0.0039348
-0.00421771
0.00815251
0.00414374
-0.00807854
-0.0553877
0.00955203
0.0458356
-0.594118
0.294919
0.299198
-0.0637107
0.0492546
0.0144561
0.0149677
-0.064291
0.0493234
-0.00417276
0.0083165
-0.00498387
-0.000552654
0.00553652
0.0181724
-0.000694755
-0.0174776
-0.00179438
-0.0090303
0.0108247
0.00607441
0.00469676
-0.0107712
-0.00208982
-0.00547318
0.007563
0.00508454
-0.00445868
-0.000625858
0.0079576
-0.0022419
-0.0057157
0.0133629
0.0126652
-0.0260281
0.0387186
-0.0253556
0.000975056
-0.00607448
0.00509943
0.00561644
-0.00464138
0.634836
-0.435776
0.0876443
-0.0451824
-0.0424619
-0.0187808
-0.0209101
0.0396909
0.0286196
-0.0489626
0.020343
-0.00379524
0.00379528
-0.00654377
0.00170731
0.00483647
0.0334006
-0.0119939
-0.0214067
-0.0492774
0.0103969
0.0388804
-0.0859126
0.0153096
0.070603
0.00357162
-0.00823125
0.00465962
-0.0080595
0.0054901
0.0025694
0.106287
-0.0347113
-0.0715755
-0.00414676
0.0632461
-0.0590993
0.0451603
-0.0435325
-0.00162778
0.0015462
-0.0200166
0.0184704
-0.0587656
0.0156233
0.0431423
-0.0386103
0.0541572
-0.0155469
0.00325709
-0.00757758
0.00432049
-0.00588979
-0.00218875
-0.00593123
-0.00717136
0.0131026
-0.0101489
-0.0416659
0.0375192
0.0313935
-0.0730594
-0.00372323
0.00990871
-0.00618549
0.032203
0.00851821
-0.0407212
0.0199864
-0.00584333
-0.0141431
0.00307256
-0.00307257
0.00916864
-0.0283671
0.0191985
-0.00702182
0.00436162
0.0026602
0.061607
-0.0596304
-0.00197656
0.030712
0.0322561
-0.0629682
0.056743
-0.026031
-0.00460035
-0.00242148
-0.0201301
0.0212396
-0.00110949
-0.00788823
-0.0122418
0.00370446
-0.0108758
-0.00628953
0.00775566
-0.00146613
0.0044649
-0.00674828
0.00228338
-0.0242636
0.0392313
0.020746
0.0107823
0.00739001
0.0181758
-0.0248085
0.0308141
-0.00600569
0.234757
-0.196689
-0.0380676
-0.00639047
0.00266362
0.00372684
-0.628707
0.343533
-0.0219404
0.0140521
0.0859476
0.463996
-0.549944
0.0552777
-0.0718993
0.0166216
-0.00348789
0.00615908
0.0130365
-0.0191956
0.00128961
-0.00128962
-0.0564584
0.47361
-0.417152
0.0133628
-0.0020869
-0.0112759
0.00829096
-0.0040378
-0.00425317
0.00513949
0.00281811
0.00913795
-0.0283554
0.0192174
0.0191738
-0.0220129
0.00283908
0.0108154
0.00835843
-0.0263191
0.0533781
-0.027059
0.0046399
0.00365106
-0.0024612
-0.00392927
-0.0126313
-0.0177301
0.0303613
0.00212773
0.0087959
-0.0109236
-0.00358547
0.00573442
-0.00214895
-0.00682808
0.0032426
0.00601266
-0.000278241
0.000429358
0.0151862
-0.0156156
-0.00925553
-0.0293691
0.0386246
-0.00978454
-0.0358009
0.0455855
-0.430404
0.355608
0.0747956
-0.0339591
-0.00465122
0.0183358
0.0309703
-0.0493061
0.0164325
-0.00332988
-0.0216656
0.0215121
0.000153569
-0.0187372
-0.00292842
0.0273927
-0.0165773
-0.0500586
0.0296389
0.0204196
-0.00133223
0.00644385
-0.00511162
-0.00409286
0.0559282
-0.0518353
0.0575142
0.0500396
0.00588851
-0.00149471
0.0242988
-0.0228041
0.0162691
-0.0158398
0.0147744
-0.0067333
0.0228263
-0.016093
0.00527511
-0.0195977
0.0143226
-0.00935737
-0.00894047
0.0182978
0.00988956
0.0065429
0.000532191
-0.00239757
-0.0273572
0.0189172
0.00844002
-0.0227381
0.0253821
-0.00264403
-0.0500953
0.0442993
0.000186215
-0.00672999
-0.00379164
0.00569255
-0.0019009
-0.0269461
-0.567172
0.0586499
0.0370567
-0.0957066
-0.013454
0.00692429
0.00652973
0.0106253
-0.00710145
-0.00352388
-0.0494898
-0.025049
0.0745388
0.319163
-0.526961
0.207798
-0.00501182
-0.00513712
-0.0892147
0.223164
-0.133949
-0.918424
0.307792
-0.00556889
0.00635484
-0.000785955
-0.00779393
0.00709918
0.0340213
9.65542e-05
0.025633
0.00838832
0.0243953
0.00739034
0.0138492
0.0126654
0.00409091
0.00975831
0.000853675
-0.0238381
-0.0166239
0.00663873
-0.01595
0.00931132
-0.0155843
-0.00103964
-0.00894555
-0.0249849
0.000173039
0.0248118
-0.0392592
0.013832
-0.246494
-0.18391
-0.0256793
-0.0380314
0.0232363
0.030921
0.0316763
-0.389575
0.491778
-0.102203
-0.509347
0.500623
0.00166541
-0.00166541
-0.00602094
0.00257007
0.00345087
-0.0767903
0.0273005
-0.00175752
0.0469178
-0.433274
-0.48515
0.1643
-0.597574
-0.552247
0.0670966
0.00271869
0.0294843
0.0262877
-0.0269616
0.000673932
0.0418404
-0.0471653
0.00532485
-0.00723338
-0.0147795
-0.0139667
-0.00508662
-0.00969291
0.0577372
-0.142171
0.084434
0.244803
0.220962
-0.465765
0.343835
-0.0990321
0.555087
-0.0180534
0.0218917
-0.00383834
-0.0159187
0.0228824
-0.00696377
-0.0339721
0.0447742
-0.0101366
-0.0490096
0.0591461
0.0365004
-0.000254024
0.0263639
-0.0352955
0.0283318
0.00342304
-0.0217269
0.00552341
0.00306546
-0.00858887
-0.00293108
0.0073041
-0.00437301
-0.048233
-0.0010444
-0.015333
0.0439525
0.0276651
0.0210051
-0.0486702
0.036579
-0.0300892
-0.00648979
0.0313829
-0.0303531
0.0329081
-0.028793
0.00807923
-0.00233032
-0.00574891
0.510686
0.124151
0.582796
-0.0721104
0.886001
-0.418514
0.0862431
-0.00768585
0.000959566
0.00672629
-0.00839429
0.002741
-0.00971532
0.00671107
0.00300424
0.00172
-0.0114353
0.0118784
-0.00516732
0.00486787
0.0195585
-0.0244263
0.00956013
0.00297058
-0.0125307
0.00731328
-0.00810742
0.000794135
0.00563493
-0.00735298
0.00171805
0.00344085
-0.0072325
0.0128057
-0.0315865
-0.00877951
-0.00652321
0.0153027
0.00596321
-0.0147427
0.00730571
-0.0138289
-0.0209491
0.011383
-0.00468394
0.0310478
-0.00832666
0.0120311
-0.00697606
0.0118439
0.0238751
-0.489553
0.546155
-0.0566015
-0.0221128
-0.00382593
0.0259388
0.00136682
0.0181917
0.0143657
0.0220161
-0.0765747
0.0545585
-0.0339703
0.0559863
0.000523758
-0.00526244
0.00473868
0.00590401
0.000108649
0.00642777
-0.00515379
0.75869
0.00982275
-0.768512
-0.0515901
-0.512782
0.193824
0.318958
0.0360614
0.00577894
-0.00811462
-0.0354179
0.0279468
-0.0398098
0.0715794
-0.0317697
0.442748
-0.5478
0.105053
-0.0389517
-0.0299534
0.0689051
-0.0730962
0.0341445
-0.357649
0.592829
-0.23518
-0.577133
0.556991
-0.0595175
0.163915
-0.104398
0.107727
0.12703
0.00324056
-0.00311082
-0.000129741
0.254845
0.114675
-0.36952
0.261486
0.0185424
-0.0169962
0.00906304
0.0248751
-0.0339382
-0.0217282
-0.0122439
-0.032775
0.0229905
-0.0165483
0.0501058
-0.0335574
-0.886122
-0.188224
1.07435
0.571504
0.373732
-0.945236
0.470326
0.287443
-0.757769
0.180666
0.289659
-0.507202
0.618199
-0.466231
0.630531
-0.306207
0.392154
-0.440548
0.362548
0.754703
0.0120653
0.0213353
-0.0212032
-0.00360521
0.0306919
-0.0221737
0.00512631
0.0312043
0.00184607
0.00877926
-0.0075725
-7.20196e-05
0.00764452
-0.00572643
0.00870724
0.505886
-0.0418896
-0.0902119
0.4479
-0.357688
0.415674
0.00130851
-0.00209636
0.000787858
-4.03259e-05
0.00238755
-0.00234723
0.0589231
-0.767087
0.708164
0.00226943
-0.000206426
-0.002063
0.162117
-0.104379
-0.0392264
1.17954
0.285641
-0.962663
0.677022
-0.00154775
-0.00224748
0.00220746
-0.0037552
-0.753751
0.339428
0.414322
0.573085
-0.859677
0.494175
0.365501
0.0872414
-0.0239953
-0.267914
0.498389
-0.230475
-1.2165
0.564911
-0.00172019
0.00172019
-0.69643
0.669484
-0.00870448
0.00410414
0.777466
-2.0312
0.749187
-0.758225
0.00903807
-0.554102
1.62254
-0.607829
0.695512
-0.0876827
0.385435
0.257404
-0.642839
0.828182
0.00243463
-0.00243462
-0.243541
0.778922
-0.535381
-0.733094
-0.466647
0.800536
-0.62363
0.0370713
-0.0710415
-0.874088
-0.342408
-1.28228
0.821651
0.535022
-0.612735
-1.03496
0.470152
0.0457398
0.462602
0.878282
-1.34088
-0.829519
1.29212
-1.38362
-0.774775
0.35461
-0.689446
-0.0853285
-0.868437
0.00876074
-0.809514
1.33925
-0.814712
0.184853
0.394314
0.00151154
0.00268942
-0.00420096
-0.128085
0.363694
0.213981
-0.903427
-0.365357
0.15273
0.212628
-1.08204
0.624511
0.124677
-0.633271
0.00278951
-0.00301245
0.000222938
-0.955311
0.0324651
0.0825048
0.0234055
-0.466346
0.649308
-0.182962
-0.343259
1.47712
-1.82038
-1.0148
-0.10608
0.929604
0.524464
-0.0198824
-0.0919107
0.0720283
0.828652
-0.509489
0.362306
-1.6937
1.3986
0.894933
-0.403414
0.210191
0.193223
-0.989714
1.85003
-0.737609
0.536127
0.201482
-0.261696
-0.475914
-0.207
1.24485
-1.45185
0.00234052
-0.000675115
-0.304943
0.781593
0.0451136
-1.31804
0.198329
-0.519327
-0.00138232
0.00138232
-0.0115941
-0.610187
1.54137
-0.17955
0.611849
0.068979
0.0373079
-0.0242841
0.0565402
0.240944
0.114664
-0.16247
0.0109016
0.607322
-0.597499
-0.555732
-0.283159
0.901509
-0.418797
0.0024627
-2.80599e-05
0.646905
0.0328526
-0.479929
-0.589858
-0.0337716
-0.900494
0.310635
-0.534992
0.709173
-0.43401
0.548674
-0.717169
-0.265979
0.476171
-1.34627
-1.48969
0.649466
-1.04423
0.0548838
0.00185926
-0.253485
0.831859
-0.578374
0.0405826
-0.100259
0.0599607
0.0402981
-0.0577088
-0.0425501
-1.19
1.05196
0.138039
0.22791
-1.27214
0.828374
-0.361626
0.0315361
0.229813
-0.261349
-0.0859715
0.117508
-0.00776099
0.0221267
0.0161141
0.0166463
0.00482263
-0.393573
-0.56909
-0.619184
0.0924993
-1.5558
-0.023932
-0.0615829
0.77058
-1.53064
0.76006
-0.8778
1.64838
-0.753175
0.212655
0.162499
1.22948
1.5558
0.170579
0.0549871
-0.0504706
-0.0045165
-0.00464329
1.64315
-1.02703
0.915061
-0.282018
0.00400922
-0.0959199
-0.0761452
0.0801544
0.873731
0.200616
0.688685
-1.06247
0.643959
-0.373787
-0.937319
0.478283
-0.65131
0.0366657
0.815588
0.533569
-0.574983
-0.895876
0.320892
-1.08499
0.537551
-0.0478034
0.119832
0.032351
0.149859
-0.00383408
0.00358619
0.00024789
-0.00232255
-0.144292
-0.572877
-0.390786
0.0184631
1.58826
1.08678
0.00189067
-0.0046919
0.00280123
-0.00364315
0.00553382
0.00961993
-0.00562008
-0.00399985
0.00223189
0.00738803
-0.00353535
0.00653032
-0.00299498
0.00569127
0.000302606
-0.00599388
-0.00108632
0.00948506
-0.00839875
0.00683441
-0.00655714
-0.000277273
-0.00466675
-0.00232331
0.00699006
-0.000430603
-0.00559229
0.0060229
-0.00438178
0.00207481
0.00230697
0.00178191
0.00715531
-0.00893722
-0.00136459
0.0107411
-0.00937655
-0.0103126
0.00366361
0.00664897
-0.00120623
0.00976607
-0.00855984
-0.0154758
0.0152935
0.00018231
-0.00672721
0.00337217
0.00335504
0.0100241
-0.0120949
0.00207081
-0.0173657
0.0120372
0.00532853
-0.00438596
0.00402348
0.000362474
0.00786729
-0.00923188
-0.0182832
0.00107051
0.0172127
-0.0104093
-0.00787391
-0.00702024
0.00294573
0.00407452
0.000306384
-0.00732663
0.00494483
0.00414688
-0.00909171
-0.00763341
0.000624983
0.00700843
-0.00258303
-0.00505039
0.000474493
0.00538008
-0.00585457
0.00949564
-0.0100863
0.000590699
0.00861042
0.000885217
-0.00804567
-0.00356194
0.0116076
-0.00550313
0.00507252
-0.00130547
-0.00481653
0.006122
0.00282858
0.00425938
-0.00708796
-0.00769323
0.00709222
0.000601007
-0.00283341
-0.00485982
0.00621389
-0.00879692
-0.0102806
0.00189464
0.00838596
-0.00348383
-0.00679676
0.0012538
-0.00576639
0.0045126
0.00459958
-0.000616369
-0.00398321
0.00392132
0.000678254
-0.0175818
0.0303875
-0.00247017
0.00470158
-0.00223141
-0.00562978
-0.000614139
0.00624392
5.33027e-05
-0.00568308
0.00187494
-0.00332175
0.00144681
0.0258103
-0.0402613
0.014451
0.0265672
-0.00823027
-0.0183369
0.00233904
-0.00879928
0.00646024
0.0111272
-0.000867959
-0.0102592
0.00390052
-0.0027171
-0.00118342
-0.0075203
-0.00270979
0.0102301
-0.0140256
0.00911102
0.00491454
0.00495428
-0.0105722
0.00561792
-0.00583683
0.00114685
0.00468998
0.0143077
-0.00377269
-0.010535
-0.00833154
0.0226392
0.000708097
0.0076122
-0.00832029
0.00306192
0.00775814
-0.0108201
-0.00684489
-0.00216908
0.00901396
0.0057624
-0.0121822
0.00641977
0.00847134
-0.00717825
-0.0012931
0.00293674
-0.00934864
0.0064119
0.0101173
-0.0226499
0.0125326
0.00238015
-0.00668065
0.00430051
-0.00696149
-0.000882177
0.00784367
0.00996442
-0.00550362
-0.0044608
-0.00830102
-0.000442673
0.00874369
-0.00678183
-0.000869096
0.00765092
0.00668149
-0.323257
0.316576
0.190905
-0.184224
0.0103333
9.03528e-05
-0.0104237
-0.00180064
-0.00810144
0.00990208
0.000854578
-0.00424476
0.00339018
-0.00921466
0.00598621
0.00322846
0.00187891
0.00880466
-0.0106836
-0.0113859
-0.00408982
-0.00463725
-0.00674869
0.0112146
0.0153526
0.00834486
-0.00834489
-0.00464091
-0.00449609
0.009137
-0.0095058
-0.00588142
0.0153872
0.00644635
-0.00243641
-0.00400994
0.00752381
-0.00694638
-0.000577434
0.00500915
-0.00557266
0.00793021
-0.00235755
-0.00900719
0.00109017
0.00791702
-0.00397565
-0.00503154
-0.00812449
0.00818022
-0.00818022
-0.00200546
-0.00427612
0.00628158
-0.00803129
0.00762415
0.000407133
-0.00126611
-0.00676518
-0.00394855
0.00671287
-0.00276432
-0.00592441
0.00365258
0.00227183
0.00175354
-0.00767795
-0.0047336
-0.00252151
0.00725511
-0.0107638
0.00479499
0.00596883
-0.00944944
0.00985979
-0.000410347
-0.00532062
-0.00412882
-0.00014522
0.0180178
-0.0178725
-0.0199738
0.0290601
-0.00908631
0.00473232
0.00035222
0.00798334
0.000715271
-0.00869861
0.00985357
0.00669749
-0.0165511
0.0289707
-0.0431325
0.0141619
-0.00897198
0.0104914
-0.00151938
-0.00552868
-0.0107622
0.0162908
0.00849785
-0.00537253
-0.00312532
0.00160384
0.00689401
-0.00431977
-0.00428716
0.00860692
-0.00730464
0.0102414
-0.0123702
0.00552528
-0.00450788
0.0107376
-0.00622968
-0.0012329
0.003408
-0.0021751
0.00421261
-0.00617946
0.00196684
-0.00982173
0.00215925
0.00766249
0.010911
-0.00355188
-0.00735911
0.00430382
0.00660716
-0.00557372
0.00132545
0.00424828
-0.00491491
0.00496821
-0.00906118
-0.000287452
-0.00599926
0.00325415
0.00487418
-0.00812833
0.00480495
0.00413046
-0.00893541
-0.00459953
0.00997503
-0.00537551
0.00821912
-0.00948522
-0.00883865
0.00777817
0.00106049
-0.00610646
0.00246331
0.00832738
-0.00299607
-0.00533131
0.0108166
-0.0116137
0.000797073
-0.00463637
0.00408733
0.000549038
0.00596044
0.00350096
-0.00946141
-0.00536894
0.0148932
-0.00952423
-0.0158624
0.00545315
-0.00583833
-0.00833318
-0.00738274
0.0157159
0.0135706
-0.0219038
0.0392954
0.0099592
-0.00841881
0.00613762
0.00228119
0.00668989
0.00105887
-0.00774876
0.00797949
0.00503165
-0.0130111
0.0305419
-0.061306
0.030764
0.0477534
-0.0172114
-0.00631241
0.00617117
0.000141233
-0.0240729
-0.0253855
0.0494584
0.119778
-0.0139868
-0.105792
-0.00693904
0.00800571
-0.00106667
0.0290932
-0.00376158
-0.0253317
0.0402445
-0.0111512
-0.00245304
0.0069546
-0.00450156
0.00130029
0.0103291
-0.0116293
-0.00531646
0.000576907
0.00473955
-0.000686806
0.00906726
-0.00838045
-0.00871587
0.0121278
-0.00341195
0.0164759
-0.0115282
-0.00494767
-0.000993874
-0.00471291
0.00570678
-0.0017298
-0.00383749
0.00556729
0.00551349
0.0048711
-0.0103846
0.00569571
0.000602115
-0.00629782
0.0120075
-0.00737462
-0.00463292
0.0102138
0.00179371
0.00471071
0.00507599
-0.00978669
0.00825366
-0.00330882
-0.00103783
-0.00636305
0.00740088
0.00219429
-0.00770151
0.00550722
0.0103493
-0.00811743
0.0101454
-0.00746897
-0.0026764
-0.00520406
0.000220192
0.00659957
-0.00357502
-0.00302455
-0.000127644
-0.00917512
0.00560009
-0.00334338
-0.00445768
0.00780106
0.0105696
-0.0123702
-0.00826218
0.00394242
0.00241998
-0.00750491
0.00508493
0.00599161
0.00712314
-0.004743
-0.0109313
0.00316254
0.00776879
0.00640152
-0.00410549
-0.00229603
-0.00292482
-0.000837984
0.00376281
0.000493456
0.00458142
-0.00507488
0.00655181
-0.00605835
-0.000557372
-0.00810787
0.00866524
-0.0801325
-0.192616
0.272749
-0.0364001
0.0308571
0.00554293
0.00577984
0.000467577
-0.00624742
-0.00263897
-0.00763253
0.00265587
0.00497666
-0.00684322
-0.00678301
0.0136262
-0.0051467
-0.00879529
0.013942
-0.00477845
0.00940257
-0.00462412
-0.00407558
0.0108381
-0.00676257
0.00568098
-0.00348795
-0.00219303
0.000644637
0.00503635
-0.00226298
-0.00212298
0.00151668
0.00693428
-0.00845096
0.00207233
0.00588754
-0.00795987
0.00034938
-0.00803196
0.00768258
0.00440759
0.0119893
-0.0163969
0.000243792
-0.00767691
0.00743312
-0.00661331
0.0068571
0.00420231
-0.00662143
0.00241912
-0.00578172
0.00699263
-0.0012109
-0.00115002
-0.0046317
0.00657373
0.0046985
-0.0112722
0.413903
-0.220079
-0.00558822
0.0112298
-0.00564158
-0.0119163
0.00387062
-0.0100374
0.00708538
-0.00508602
-0.00199936
0.00496858
0.00120361
-0.00617219
0.00731511
-0.00589892
-0.00141618
-0.0012054
-0.00700014
0.00820554
-0.00104819
-0.00746048
0.00850867
0.00290673
-0.00921671
0.00630998
-0.00747829
-0.00719675
0.014675
0.000280407
0.00690757
-0.00718797
0.000549715
0.00621714
-0.00676686
-0.000820647
0.00880014
-0.01089
0.00358537
-0.00313187
-0.0087848
-0.00747449
0.00665032
0.000824167
-0.003672
-0.00380249
0.00703486
-0.00687709
-0.00015777
0.00356125
0.00347361
-0.00696265
0.00956663
-0.00260399
-0.00786913
0.000906482
-0.00535813
-0.00435346
0.00971159
0.00531633
-0.0172975
0.0119811
0.0121838
-0.00784917
-0.0043346
0.00739171
0.00479206
-0.0412327
-0.0141549
0.00570606
0.00350003
-0.00920608
-0.0108014
0.00699089
0.00381053
0.00351409
0.0034239
-0.00693799
0.0164549
-0.00768982
-0.00876508
0.0109224
-0.0150636
0.00414118
-0.00434046
-0.00440512
0.00874558
0.000608657
-0.00969354
0.00908489
-0.00405787
-0.00772276
0.0117806
0.00957068
-0.00697153
-0.00259915
0.00407047
0.00555312
-0.00962359
-0.00233329
-0.00806843
0.0104017
-0.00497717
-0.00484154
0.00981871
0.00275232
0.00511898
-0.0078713
0.00701305
-0.00769649
0.000683438
0.00127232
-0.00974554
0.00847323
-0.0264749
0.0206285
0.00584639
0.00796089
-0.0344358
0.0104382
-0.00735772
-0.0030805
-0.00765105
0.00132301
0.00632805
0.00367387
0.00455248
-0.00822635
0.000918435
0.00318129
-0.00409972
0.0580015
0.0241746
-0.0821761
-0.0279111
0.00910688
-0.00849822
0.00499476
0.00163401
-0.00662876
0.000175802
0.0060247
-0.0062005
-0.0221025
0.0150717
0.00703084
-0.0139089
-0.00819362
0.00238606
-0.00760778
0.00522172
-0.0411651
0.000443949
0.00847218
-0.00877248
0.000300301
0.00518196
0.00610735
-0.0112893
0.00710136
-0.00249897
-0.0046024
0.0198769
-0.0107082
0.0110149
0.00651199
-0.0175269
0.000732462
-0.00938549
0.00865303
0.00186307
-0.0130246
0.0111615
0.00015887
-0.0129499
0.012791
0.00512257
-0.00826245
0.00313988
-0.0103488
0.00348755
0.00686122
-0.00346797
-0.00542885
0.00889682
0.00309195
0.00550206
-0.00859401
0.00714002
-0.00683363
0.0044778
0.00388771
-0.0083655
-0.00949294
0.00447048
0.00502246
-0.00178959
-0.00770335
-0.00734503
0.00859046
-0.00124542
0.00852677
-0.000363542
-0.00816323
-0.00167885
-0.00202648
0.00370533
-0.00280429
0.0142012
-0.011397
-7.47677e-05
0.0123017
-0.0122269
-0.000157368
-0.0104735
0.0106309
0.0077146
-0.0125818
0.00486719
-0.011386
0.00328455
-0.00844751
-0.00293848
-0.00707935
-0.00497577
0.0120551
0.00346077
-0.00974132
0.00628056
-0.0080511
-0.00147339
0.00952448
-0.00653442
-0.00881842
0.00176893
-0.00602119
0.00425225
-0.00324937
0.00495667
-0.0234224
0.0118245
0.0115979
0.00806654
-0.00129801
-0.00676853
-0.00589568
0.00680714
-0.000911455
0.0149776
-0.00405523
0.00995694
0.00502067
0.0123997
0.00883356
-0.00768342
-0.00115015
0.00205174
-0.00478182
0.0361754
0.0108372
-0.00362116
-0.00721601
0.0081571
-0.00926695
0.00110985
0.00106603
0.00709107
0.00843733
-0.00894751
0.000510185
0.00431442
0.00412291
-0.0032404
-0.0167334
-0.0115719
-0.00895707
-0.00777635
0.00803755
-0.00195598
-0.00608157
-0.00666452
0.00614372
0.000520796
0.00231999
0.00154399
-0.00386398
-0.0135552
0.00619677
0.00735845
-0.00609521
-0.0055388
0.011634
-0.0233312
-0.0192382
0.0425694
-0.0104263
0.00614859
0.00427773
-0.00569502
-0.0047313
0.0110438
-0.00822156
-0.00282223
0.00300999
0.00776059
-0.0107706
-0.00867685
0.00759054
0.00213957
-0.00894188
0.00680231
-0.00681045
0.00528331
0.00152714
-0.00184496
0.00344352
-0.00159857
-0.00459295
0.0162039
-0.0116109
-0.0247031
0.0201101
0.138533
-0.240736
-0.184725
0.0648677
-0.0196493
-0.0452184
-0.0108031
0.00477491
0.00602819
-0.0118213
0.00101818
-0.00429272
-0.00571073
0.0100035
0.00557294
-0.00986566
-0.0124012
0.0216433
-0.00924209
0.0178325
0.0273597
-0.00571646
-0.011081
-0.0414918
0.0525728
0.03123
-0.042311
-0.00126699
0.00769475
-0.0044892
0.0252338
-0.0207446
0.0125356
-0.0302346
0.017699
0.0013186
-0.00857516
0.00725656
0.0183817
-0.00516368
-0.013218
0.0153114
0.00307034
0.0053895
0.00511923
-0.0105087
-0.00543056
-0.0100598
0.0190126
-0.00895278
0.00356936
-0.00529916
-0.00309516
-0.0386124
-0.0350776
0.07369
0.0432473
-0.0654701
0.0222228
0.00478796
0.00615852
-0.0109465
-0.00279821
0.00758617
5.76286e-05
0.00610089
0.00303347
0.00512985
-0.00816332
-0.00296843
0.00853771
-0.00556928
0.00610066
0.00193689
-0.00396245
0.0096685
-0.00255341
-0.00227506
0.00482847
-0.0106191
0.0143481
-0.00372896
-0.00627948
0.0151365
-0.00885699
0.0102802
-0.00147551
0.00671822
0.011181
-0.00142249
-0.00975854
0.00390289
0.00416684
-0.00806973
-0.0117085
0.00656176
-0.00436247
-0.00686069
0.0112232
0.00920119
-0.00464302
-0.00455817
0.00182657
-0.00658
-0.00421493
0.0107949
-0.00584754
0.00427905
-0.00849398
0.00317857
-0.00921069
0.00603212
-0.00632533
0.0095039
0.0058542
-0.00434687
-0.00150733
-0.00779461
0.00392852
0.00386609
0.00869911
0.0012802
-0.00997931
0.00298243
0.00407217
-0.0070546
0.00473596
0.00567601
0.0085832
-0.0103776
-0.00823618
0.00317524
0.00506094
0.0175167
0.0230866
-0.0406033
0.0371696
-0.0195077
-0.017662
0.000659139
0.00658459
-0.00724373
-0.00557811
0.00623725
0.00177933
0.00480526
0.00978019
-0.00465762
0.00351171
0.00557265
-0.00908435
-0.000177109
-0.0047378
0.00575083
-0.00154852
-0.00628632
-0.0115847
0.00935133
0.00223341
-0.0112326
0.0105458
0.00710224
-0.00305065
-0.00405159
0.00182045
0.0117502
0.0119377
0.00559133
0.00615884
0.00681269
-0.0102965
-0.0014763
-0.00897605
0.0104524
0.0133005
0.00176977
-0.0150703
0.021254
0.00956008
0.0337896
-0.00304793
-0.0055666
0.00861454
-0.00645781
0.00340987
0.00437454
-0.00498868
-0.00887141
-0.0287831
0.0376545
0.000463036
0.00790837
-0.0083714
0.0108676
-0.00868265
-0.00218495
-0.0167623
-0.000464678
0.017227
-0.0445834
0.0207831
0.0238003
0.0356237
-0.0262077
-0.00941594
0.00324043
0.00632637
-0.0095668
0.0132163
-0.0205991
-0.000184809
0.00628547
0.00488298
-0.00506779
0.0042023
0.00208316
0.00427205
0.00521301
-0.005314
0.00958605
-0.00227129
0.0074843
0.00874613
-0.022655
-0.00623544
0.00524157
-0.00606744
0.00389031
0.00217712
0.00062245
0.0222152
-0.0254158
0.00320054
-0.00675008
-0.00401374
0.00525854
0.00157586
0.00573304
0.00727157
0.00873329
-0.00659372
-0.00666164
0.00666164
-0.0382453
0.0117284
0.0265168
0.00528956
-0.00704974
0.00176018
0.00705849
-0.00164268
0.00429571
-0.00265303
-0.00191986
0.00191985
0.0191264
0.0180432
-0.00828762
0.00732168
0.000965941
0.0319517
-0.00103069
0.00669791
0.00435277
-0.0110507
-0.00258868
0.00928659
0.00182802
0.0079315
-0.00975952
0.00679303
-0.00327894
0.0088559
-0.00990409
0.0380212
0.018732
-0.0567532
-0.00553531
-0.00521858
0.0107539
-0.0135109
-0.00325142
-0.000420721
-0.0130902
0.014172
-0.0174234
-0.00635623
0.000789625
0.0256271
0.00191177
-0.0275389
0.0101645
0.0154626
-0.0269797
0.0288914
-0.00245618
0.00783193
-0.00537575
0.00288113
0.00540046
-0.00828159
-0.00398896
0.00398896
-0.00449244
0.00731837
-0.00282593
-0.00673435
-0.0342431
0.0170779
0.0171652
-0.0120279
-0.00762516
0.00486787
-0.00486787
-0.00365145
0.00365145
-0.00306352
0.0128018
-0.00973828
-0.00115613
-0.00752924
0.00868536
-0.00868225
0.00637661
0.00230564
0.00105381
-0.00562093
0.00456712
0.00610347
-0.00143757
-0.0046659
0.00715728
-0.0108608
0.00938447
-0.00700187
0.00694684
5.50225e-05
-0.00433326
-0.00212454
0.00643419
-0.0105098
0.00299583
-0.00299584
0.00462819
0.00362546
0.00525064
-0.0120583
0.00361039
0.00844794
-0.0148912
-0.000152164
0.0150434
-7.89078e-05
-0.0101298
0.0102087
-0.00701453
-0.00879793
0.0158125
0.00627206
-0.00407778
0.00282882
-0.00652108
0.00369225
0.0260763
-0.000520834
-0.0255555
0.0238547
0.00350502
-0.0073922
0.00830909
-0.000916893
-0.0115713
0.00472807
-0.0137891
0.00221783
0.0134054
-0.00867731
-0.0100778
0.000692359
-0.00671421
-0.00336364
0.000677982
0.00597234
0.0177175
0.0101231
-0.0278406
0.00371505
0.00617195
-0.009887
0.00736503
-0.0168709
0.00950589
0.0043868
-0.0043868
-0.00936349
0.00258255
0.00678094
0.00333717
-0.00860974
0.00527258
0.00290761
-0.00290761
0.00871299
-0.005703
-0.0123258
0.0101721
0.00215375
0.00290684
-0.00723956
0.00433272
-0.013204
0.0142745
0.00375033
-0.00720912
0.00345879
0.00641395
-0.00551968
0.00561418
-9.45031e-05
0.00584437
0.000254159
-0.00609853
-0.0209589
0.0240652
-0.00310628
0.0210025
-0.000222887
-0.0207796
0.010178
0.0051155
0.0103368
0.0124805
-0.00389138
-0.0101342
0.00442726
-0.00831864
0.000200925
-0.0103351
-0.00399162
0.00597547
-0.00198386
0.00392873
0.00247847
-0.00640719
-0.00570981
0.00570981
0.0042182
0.00387949
-0.00809769
0.00207712
-0.00207712
0.00624626
-0.0108893
-0.00822675
0.00802668
0.000200078
-0.265327
0.0601623
0.205165
-0.166152
0.244698
-0.0785457
-0.431479
0.30486
0.00979102
-0.00112996
-0.00866106
-0.00663621
0.000830878
0.00580534
-0.00372938
-0.465506
0.32154
0.143966
-0.153103
-0.312404
-0.00100674
0.0112206
-3.59246e-05
-0.0148553
0.013951
-0.00868613
-0.00526486
0.0139151
-0.0065454
0.00608246
0.000462944
-0.00454033
-0.00703674
0.0115771
-0.00714548
0.00610765
-0.00741003
-0.000947796
0.00835783
0.0222296
0.00405804
4.41229e-06
-0.0209633
-0.0282755
0.034431
-0.00615546
0.011969
-0.00706087
-0.00306759
0.00306759
0.00186252
0.00630595
-0.00816847
-0.00582999
-0.0025633
0.00839329
-0.00396747
0.00374265
0.0027367
0.00436467
0.00666542
-0.0111227
0.0133468
-0.00222411
-0.000211993
0.0188005
-0.0185885
0.0213536
-0.0215656
-0.000475942
-0.00515476
0.0056307
-0.0345445
0.00842358
0.0261209
-0.0290718
-0.00547274
0.0353579
-0.0269343
0.00444782
0.00260451
-0.00705234
0.00577327
0.00681713
-0.0129551
-0.00025247
0.0132076
-0.0103627
-0.00259241
-0.00277589
0.0551319
-0.052356
-0.0150278
-0.0232175
-0.004974
-0.00170238
0.00123293
-0.00528881
0.00405587
-0.000352327
-0.0060539
0.00640623
-0.00647773
0.00612541
0.00300181
0.0136382
-0.01664
-0.0142038
-0.00357839
0.0177822
-0.011202
-0.00623462
0.00762549
-0.00139087
-0.00517575
0.00678534
-0.000940962
-0.0334238
0.000419096
0.0330047
-0.0145294
-0.0188944
0.0353883
-0.0349692
0.0217539
-0.0190352
-0.00520773
-0.00121289
0.00121288
0.00446049
0.00115595
-0.00130637
0.00576686
-0.0143265
-0.0159081
-0.0188157
0.00149046
-0.00149046
0.00346373
-0.00346373
-0.00200428
0.00200428
0.00597377
-0.00117878
0.00124017