/*--------------------------------*- C++ -*----------------------------------*\
  =========                 |
  \\      /  F ield         | OpenFOAM: The Open Source CFD Toolbox
   \\    /   O peration     | Website:  https://openfoam.org
    \\  /    A nd           | Version:  6
     \\/     M anipulation  |
\*---------------------------------------------------------------------------*/
FoamFile
{
    version     2.0;
    format      ascii;
    class       volVectorField;
    location    "1600";
    object      U;
}
// * * * * * * * * * * * * * * * * * * * * * * * * * * * * * * * * * * * * * //

dimensions      [0 1 -1 0 0 0 0];

internalField   nonuniform List<vector> 
29884
(
(7.47681 0.0589218 -1.04437e-16)
(5.32238 0.0253447 9.00413e-17)
(5.41212 -0.115443 4.7905e-17)
(7.11051 -0.0759771 7.47817e-19)
(7.21647 0.10365 -2.86915e-17)
(5.74369 0.155783 6.8336e-17)
(7.88533 -0.117886 -3.46557e-19)
(7.38639 -0.0015195 4.22688e-17)
(4.6918 0.121436 2.51766e-17)
(7.13536 0.0178219 7.18357e-17)
(7.44374 0.00878486 -3.16866e-17)
(7.20165 0.195516 1.62768e-17)
(8.07921 -0.132139 -2.62144e-17)
(7.15873 -0.112837 2.43814e-17)
(7.18106 0.0981472 -3.25545e-17)
(4.43092 -0.056285 8.43569e-17)
(8.22262 0.0497202 -3.52578e-17)
(6.66445 0.195709 -5.93577e-17)
(6.51509 0.16296 0)
(4.17458 -0.00372831 -1.64918e-16)
(7.79062 0.209802 1.44801e-16)
(4.94066 -0.0377967 0)
(8.00611 -0.0624321 -3.8745e-18)
(7.11443 -0.021637 0)
(7.0708 -0.0131676 0)
(7.59566 0.0435769 -2.53882e-17)
(7.8448 -0.0109845 0)
(8.01652 -0.0450714 8.41662e-17)
(5.16151 -0.0249215 8.4045e-17)
(5.15945 0.113246 7.46401e-18)
(5.39903 -0.00800009 -1.38667e-17)
(4.81247 0.0893122 4.90769e-16)
(7.99025 0.0355736 -2.48233e-17)
(7.44246 -0.0308015 0)
(7.27741 -0.0590798 -7.61796e-17)
(7.50834 -0.105114 6.07264e-17)
(5.01317 -0.0350634 8.12665e-17)
(7.54838 0.135906 9.68054e-18)
(5.35296 0.146883 -7.71403e-17)
(7.77496 -0.151276 -3.72861e-17)
(5.02158 -0.0502155 0)
(7.05707 0.0710562 1.52266e-17)
(7.6035 0.195548 -4.70756e-17)
(7.23302 0.282833 -3.09667e-16)
(6.97391 -0.0160779 2.12497e-17)
(7.57265 -0.15292 -2.33493e-17)
(8.02229 -0.20772 0)
(7.67515 -0.114829 -6.61841e-18)
(4.80697 0.0345134 -9.35634e-18)
(8.36083 0.09134 0)
(7.37428 0.125261 0)
(7.18438 -0.0740846 4.33074e-18)
(4.714 -0.151938 3.66805e-17)
(8.40889 0.0279167 1.02253e-16)
(7.19851 -0.0624807 -8.12535e-17)
(7.08537 -0.13777 6.19173e-17)
(4.40998 -0.0181557 1.03749e-17)
(7.97927 -0.054779 0)
(6.66185 0.0507993 6.3933e-17)
(6.89496 -0.14236 -1.01939e-16)
(7.76301 0.160145 -1.82478e-17)
(7.8119 -0.0097703 2.43298e-17)
(4.71675 -0.100606 0)
(8.13779 0.0523564 -3.78867e-17)
(7.12381 -0.0690922 2.84627e-17)
(7.0097 0.0799902 -6.32019e-18)
(7.452 -0.0425115 8.94235e-18)
(7.82721 -0.115599 5.95916e-17)
(7.40593 -0.0943267 -4.00899e-17)
(7.33193 0.0675535 5.44539e-17)
(7.24749 0.196413 4.08323e-17)
(7.67252 0.0660219 -1.34231e-17)
(7.51796 0.101949 0)
(5.63189 -0.138855 0)
(7.30079 -0.105114 -4.99724e-17)
(6.9093 -0.0927266 -1.77615e-17)
(8.13227 0.105282 0)
(7.87694 -0.123329 0)
(8.08342 -0.116878 0)
(5.09477 0.0360958 0)
(7.66935 -0.0766536 5.13694e-17)
(5.2336 -0.0517843 0)
(7.11486 -0.139962 0)
(7.01538 0.093973 2.70112e-17)
(6.60037 -0.0557598 -1.88622e-17)
(4.53424 -0.493364 -9.09812e-18)
(7.35674 -0.00011699 0)
(7.60103 -0.0316564 0)
(7.25051 -0.108773 4.49254e-18)
(3.67891 -0.833042 1.83138e-17)
(7.18728 -0.197846 0)
(7.88637 -0.245935 -1.92928e-17)
(4.55502 -0.0858024 -5.19609e-17)
(3.34848 -0.705131 0)
(7.12179 0.126353 -4.26138e-17)
(1.63921 -0.364111 0)
(6.99611 0.013974 -7.11156e-17)
(7.00704 0.0129018 9.4101e-17)
(7.47416 0.0550578 1.08709e-17)
(3.3957 -0.539278 0)
(7.01165 0.037167 4.74358e-17)
(6.94225 0.0734893 1.06825e-16)
(7.65582 0.014529 0)
(7.75028 0.018598 -2.79153e-18)
(7.3548 -0.11658 -4.83068e-18)
(8.12118 -0.117662 0)
(3.82541 -0.628498 1.48981e-17)
(3.70776 0.0545136 -3.71966e-17)
(7.12134 0.133413 -4.84879e-17)
(6.96937 -0.326251 0)
(7.39915 -0.209339 0)
(1.49938 -0.211814 5.46382e-17)
(7.24649 -0.0795921 3.06052e-18)
(7.14479 -0.117166 0)
(7.30132 -0.119245 -2.49213e-18)
(6.97363 0.109973 -2.71416e-17)
(7.16204 0.11552 0)
(7.12434 -0.223782 0)
(6.76236 -0.0741937 0)
(6.64287 -0.310852 4.13378e-17)
(7.00361 0.0060116 0)
(6.85274 -0.30009 2.65871e-17)
(7.31892 -0.156684 4.12801e-17)
(6.78403 0.19579 0)
(7.0355 -0.0247514 1.2837e-17)
(7.04751 -0.19135 -6.15571e-17)
(7.80297 -0.268708 4.71868e-18)
(7.95354 -0.0382512 1.5504e-17)
(6.86584 -0.220906 -4.54878e-18)
(6.98702 0.137826 0)
(6.7712 0.167826 1.29478e-17)
(6.94789 0.120411 -1.45999e-17)
(6.96282 -0.103828 4.06592e-17)
(8.13118 -0.11704 0)
(6.89077 -0.0876476 0)
(7.46475 -0.0886662 0)
(7.6494 0.23639 0)
(7.34209 -0.109822 6.57153e-18)
(7.53046 -0.14384 -1.61786e-17)
(7.53048 -0.13002 3.34112e-17)
(7.39023 -0.11487 0)
(7.28045 -0.0149245 2.48741e-17)
(7.6975 0.142413 -1.82682e-17)
(7.73783 -0.228838 -9.38084e-18)
(7.98038 -0.185019 -1.0243e-17)
(8.00553 -0.210517 1.01159e-18)
(7.75467 -0.177817 1.90201e-17)
(7.48978 0.177239 5.39611e-17)
(7.81016 0.118077 -4.53596e-17)
(7.74825 0.207501 4.94827e-17)
(7.63922 0.125531 0)
(4.30826 -0.108346 -2.39233e-17)
(3.945 0.0289022 0)
(7.90323 -0.143801 -1.37669e-17)
(7.82129 -0.220636 2.34078e-17)
(7.88513 -0.163886 0)
(7.92703 -0.185584 -7.22716e-18)
(7.81464 -0.205237 0)
(7.86578 -0.120675 0)
(7.90098 -0.177316 0)
(7.86048 -0.149841 -2.36086e-17)
(7.03866 0.0280551 3.45473e-17)
(6.95582 -0.0462953 -3.50403e-17)
(7.54659 0.19129 -8.73861e-17)
(1.11544 -0.0674941 -1.15057e-16)
(1.06408 -0.00919559 1.15875e-20)
(4.91753 -0.0752229 0)
(4.72479 -0.00676024 0)
(7.00799 0.0426003 -3.97282e-17)
(7.95625 0.195224 5.30351e-17)
(7.3571 0.0478225 -1.58315e-16)
(6.98058 0.104467 0)
(6.97357 0.0753769 0)
(6.87599 -0.0648185 -1.95754e-17)
(7.02512 -0.0633198 0)
(7.01909 -0.178413 7.80407e-18)
(6.82314 -0.259124 -6.90457e-17)
(5.16573 -0.0323539 7.56749e-17)
(7.07277 0.139186 -3.74619e-17)
(7.25071 -0.195845 -7.13579e-18)
(6.99048 -0.279549 -1.5718e-17)
(6.3155 -0.35426 -3.19262e-18)
(6.31267 -0.263285 3.96328e-17)
(6.43049 -0.199486 7.51228e-18)
(7.16601 -0.105516 9.30439e-18)
(7.27022 -0.130091 0)
(7.0652 -0.0226932 -5.56717e-17)
(6.98549 -0.00011009 3.61559e-17)
(7.29817 -0.237696 -4.19164e-18)
(6.98132 0.110398 3.0196e-17)
(7.37343 -0.171517 0)
(6.55999 -0.0693388 2.58009e-17)
(6.4255 -0.119801 -7.15272e-18)
(7.26101 0.159553 8.60125e-18)
(7.36214 0.127684 -3.37776e-18)
(7.03934 0.155093 0)
(6.8464 0.181719 0)
(7.37516 0.0545226 2.41939e-17)
(7.61659 -0.0177884 -7.15076e-18)
(7.46869 -0.1292 0)
(6.76969 0.0299415 0)
(7.59674 -0.0317865 0)
(7.53123 0.059361 3.44405e-17)
(7.16892 -0.0111389 -3.45473e-17)
(7.37106 0.0702037 -9.80273e-17)
(6.56812 -0.287659 0)
(7.41129 -0.0734009 0)
(7.18928 -0.108844 0)
(7.32892 -0.0419886 0)
(7.84983 -0.11926 0)
(7.69631 -0.119094 0)
(7.87844 0.0654854 0)
(8.08258 -0.0803857 0)
(4.75427 -0.076739 0)
(7.05672 -0.0964028 0)
(4.11956 0.959145 -3.17715e-19)
(6.32416 2.48219 -5.24064e-19)
(3.87426 -0.0577925 1.70413e-18)
(6.68556 2.53215 0)
(2.79351 -1.55663 -1.67625e-20)
(2.71431 -1.53093 1.42198e-17)
(7.37468 -4.27854 7.6017e-18)
(6.79283 0.318267 0)
(6.75066 2.20196 0)
(4.18805 -0.87895 -2.0909e-17)
(2.65725 -1.60337 -1.52796e-20)
(3.93128 -0.796861 2.86439e-18)
(3.0528 -0.569718 0)
(2.51041 -5.37905 6.0159e-18)
(7.68748 -1.40388 0)
(5.09125 -4.32159 -1.03903e-19)
(3.84352 -0.818938 3.21268e-18)
(4.17075 -0.200374 5.10861e-21)
(6.50419 -4.23283 -2.72294e-18)
(6.58568 -4.22488 -2.45053e-18)
(4.16161 0.0215964 5.83588e-19)
(4.11203 0.0448752 -7.20656e-19)
(6.72821 0.235409 -8.12024e-17)
(3.79536 -0.0963584 0)
(5.66706 -3.91819 -2.80447e-18)
(5.99346 -3.83603 0)
(1.66103 -0.904814 0)
(4.05862 0.70024 -1.47584e-18)
(6.11539 -4.27055 4.62942e-18)
(6.47386 -3.51379 -2.20217e-18)
(6.45608 1.84487 0)
(3.88874 -1.52926 2.85025e-18)
(3.86029 -0.512444 0)
(5.77958 -1.29848 3.74828e-18)
(7.02109 -2.34818 -1.50687e-17)
(6.68687 -3.7019 -4.65017e-18)
(6.42735 2.86316 1.45375e-20)
(6.39396 2.25316 1.69969e-18)
(6.37315 2.34448 -2.16437e-18)
(2.63276 -1.19775 0)
(2.68587 -1.40402 7.46395e-20)
(2.96032 -1.51194 -1.83344e-17)
(2.86244 -1.46009 -2.56936e-20)
(6.27182 -2.0191 -7.96388e-18)
(5.83408 -1.8349 6.33676e-18)
(6.77086 -1.92876 0)
(6.24507 2.445 2.33688e-18)
(5.88741 -4.3554 -2.05162e-18)
(1.76075 0.74801 -6.01404e-17)
(6.18447 2.85516 0)
(3.69836 -1.36095 0)
(7.4175 -3.71701 1.64948e-17)
(6.54951 1.95821 2.11532e-18)
(6.59935 2.00431 4.91792e-19)
(3.69535 -1.27088 0)
(6.5333 2.47363 -5.29346e-20)
(6.50536 2.48854 7.30481e-20)
(3.00068 -1.42428 9.25237e-18)
(3.57035 -2.00327 4.48214e-19)
(3.46172 -2.18547 3.65506e-18)
(3.94799 -1.08232 4.24709e-17)
(3.7345 -1.04533 0)
(3.07272 -0.708525 0)
(3.18358 -0.777729 5.06934e-19)
(5.92922 -4.10855 2.1334e-18)
(3.9788 -0.275616 0)
(4.09574 -0.704187 -6.97873e-19)
(6.87372 -0.413171 2.06206e-17)
(6.47784 2.4736 0)
(6.58021 0.198822 5.5235e-17)
(6.36755 2.1374 0)
(6.41146 2.18437 0)
(6.33224 -4.62722 0)
(0.962966 -0.477138 8.37949e-17)
(6.87504 0.311449 -7.65697e-17)
(2.90335 -0.392252 -9.7981e-18)
(4.12139 -0.408505 2.4073e-18)
(4.15788 -0.269397 -1.14089e-18)
(5.90525 -4.22726 -1.27675e-18)
(6.52649 -4.62241 -1.09104e-18)
(6.53551 -4.5824 -3.44295e-18)
(6.28303 2.34938 3.42295e-18)
(4.11315 -0.481955 -3.88059e-18)
(4.09783 -0.626763 1.45903e-18)
(6.16207 -4.13761 -2.15174e-18)
(6.78659 -3.51803 0)
(3.94024 -0.977652 0)
(3.99049 -0.920256 0)
(3.94299 -1.06488 0)
(3.10705 0.454413 -1.7353e-17)
(3.81626 -1.75035 9.08134e-18)
(4.18524 -1.33779 0)
(6.1296 0.122079 -1.6665e-17)
(6.33847 2.33486 -5.50894e-19)
(6.30758 2.27187 -1.9724e-18)
(6.34945 2.27611 -2.22007e-18)
(6.29908 2.32997 -4.34807e-18)
(2.94679 -1.66028 -2.05995e-17)
(5.70336 -4.21761 8.65769e-19)
(5.7667 -4.25897 -1.86883e-18)
(6.58146 -4.57372 5.21712e-18)
(6.64732 -3.92517 0)
(4.0115 -0.641202 2.66326e-18)
(7.4788 -3.36717 -5.06036e-18)
(7.45241 -3.55356 -1.09621e-18)
(7.25027 -2.98885 4.15675e-18)
(3.36577 0.129562 0)
(3.22668 0.366986 -1.72537e-17)
(3.20923 0.159936 0)
(6.6605 -4.66 -1.94864e-18)
(6.49845 2.41402 7.91783e-20)
(3.04902 -1.92854 -1.37492e-17)
(2.9695 -1.73478 1.82591e-17)
(3.08252 -1.74793 2.21048e-17)
(2.90561 -1.92106 6.44386e-18)
(6.42828 2.40033 1.00795e-18)
(6.47554 2.37575 -1.37793e-18)
(6.45659 2.35534 3.03345e-19)
(6.45635 2.41141 3.57733e-19)
(4.0539 0.769096 2.86038e-18)
(4.02056 0.917628 -1.63386e-18)
(6.81298 0.283937 -2.55399e-19)
(6.68668 -0.864102 -3.32183e-17)
(2.87334 -0.727191 -1.99314e-17)
(2.85092 -0.965715 0)
(7.28172 -3.27088 -6.04545e-18)
(7.51316 -0.459081 -3.96595e-17)
(2.83585 -1.3419 5.78643e-18)
(5.81918 -0.847396 -2.06481e-18)
(7.10976 -0.241086 9.46479e-18)
(2.84161 -0.582288 0)
(2.94137 -0.568706 1.88513e-17)
(2.90711 -0.497278 6.71833e-20)
(2.88405 -0.62223 -5.43607e-18)
(3.58635 -0.067718 3.17759e-19)
(3.58361 -0.246019 0)
(3.37563 -0.00364239 -6.78477e-18)
(6.54172 2.44818 0)
(6.52536 2.4266 0)
(6.57281 2.43213 1.24907e-19)
(3.28693 -0.437694 0)
(3.12148 -0.450336 3.26476e-17)
(3.06967 -0.101528 0)
(3.08679 -0.323943 -3.53507e-17)
(3.14624 -0.173803 0)
(3.39795 0.598397 -6.42016e-18)
(3.63872 0.288858 3.72791e-17)
(6.19944 0.17187 -6.00602e-17)
(6.7573 2.10848 -6.74769e-19)
(6.37289 2.37287 7.89049e-19)
(6.40468 2.39693 -1.61789e-18)
(6.69311 -0.615822 6.15934e-18)
(6.744 -0.396203 0)
(1.14607 0.420976 0)
(2.67232 -0.541079 -8.24014e-18)
(7.09447 -3.38256 0)
(6.80588 -3.57467 -1.4105e-17)
(7.10594 -0.259062 -2.16183e-17)
(7.13114 -0.244139 1.68793e-17)
(7.06367 -0.294675 0)
(6.25629 2.49559 1.18617e-18)
(6.30701 2.56008 5.71082e-19)
(6.93186 -3.9704 4.8685e-19)
(6.55376 -4.64106 0)
(6.61931 -4.65198 2.6962e-18)
(6.54298 -4.68032 2.78869e-18)
(5.24929 0.242528 9.9817e-17)
(6.50648 -0.480001 -5.51892e-17)
(6.52405 -0.59876 0)
(6.59488 -0.407494 -2.41806e-17)
(6.27646 -4.00758 0)
(6.45001 -4.03603 5.58751e-18)
(6.35715 -4.11005 -1.09758e-20)
(6.33085 -3.98802 -4.80944e-18)
(4.22165 -0.345944 0)
(3.97501 -0.114444 -2.12043e-18)
(3.8984 -0.319227 -3.25734e-17)
(4.23458 -0.201904 0)
(6.55295 -4.08754 2.60627e-18)
(6.60941 -4.1764 2.63561e-19)
(6.65059 -4.03068 -1.75851e-18)
(4.09587 0.458918 2.43835e-18)
(4.03629 0.348005 0)
(6.38669 -3.61033 0)
(6.15725 -3.77061 -4.52642e-18)
(3.93393 0.429411 -5.43307e-19)
(3.63772 0.796025 -8.26546e-18)
(4.29501 -0.533966 -5.31557e-19)
(4.04522 -0.644501 1.79728e-17)
(4.1953 -0.665696 -1.14521e-17)
(4.21689 -0.432465 1.03726e-17)
(3.18992 -2.79196 -2.4764e-18)
(6.67925 0.256843 9.89078e-18)
(6.66734 0.228104 0)
(6.88116 0.142833 0)
(6.81486 0.176016 5.55936e-18)
(4.03617 1.18212 0)
(4.08498 1.04512 0)
(2.88414 -0.18085 -2.34219e-17)
(2.8739 -0.0632775 1.5666e-20)
(2.80049 -0.207725 1.07817e-17)
(3.37759 -1.24955 0)
(6.73789 -1.80122 0)
(3.91136 1.638 -9.31789e-20)
(4.03399 1.50404 -1.93686e-18)
(3.98858 0.994469 -1.56158e-18)
(5.55406 -3.97688 0)
(3.15105 -1.18522 9.10888e-18)
(3.23113 -1.05085 1.79375e-17)
(3.01705 -1.14444 0)
(3.55598 -0.504034 0)
(3.8068 -0.332066 4.21669e-17)
(3.63963 -0.297613 -5.18561e-18)
(3.78454 -0.498483 -3.06988e-17)
(3.10616 -1.45286 1.79643e-17)
(3.26948 -1.3352 0)
(3.17236 -1.28618 -1.88742e-17)
(3.23526 -1.46435 0)
(7.6152 -0.404415 1.4189e-17)
(3.68356 -1.40829 0)
(3.47943 -1.27573 0)
(3.65179 -1.21112 0)
(3.49087 -1.43061 1.50132e-17)
(7.03324 -2.63407 0)
(7.25144 -2.48074 -8.38553e-18)
(3.84579 -1.19086 -8.38136e-19)
(3.92632 -1.111 0)
(3.91446 -1.19321 7.55073e-19)
(3.86377 -1.11888 0)
(6.9059 0.0809314 3.50597e-19)
(6.87017 0.0160434 0)
(6.52351 0.318989 3.25322e-17)
(6.87191 -3.90433 2.3422e-19)
(6.75889 -3.76595 4.28196e-18)
(6.91354 -3.80924 3.8123e-18)
(6.7252 -3.88322 4.69484e-18)
(6.87942 2.07882 0)
(7.25233 0.44495 -2.81202e-17)
(4.52176 -1.5372 1.86201e-17)
(4.60914 -1.24291 -3.43483e-17)
(6.9952 -0.34222 1.70405e-17)
(7.09025 -0.271509 -1.15545e-18)
(7.01491 -0.315734 -1.11896e-17)
(6.86407 1.3703 2.11152e-18)
(4.04068 -0.19914 -3.35475e-17)
(2.08908 -0.193178 0)
(6.09219 -0.467409 -2.32457e-17)
(6.20978 -0.454727 5.34025e-18)
(6.42946 2.93429 -8.59917e-20)
(6.31869 -4.23842 0)
(6.35595 -4.16193 -2.15642e-20)
(6.42308 -4.19358 3.20012e-18)
(6.28288 -4.17223 2.86545e-18)
(4.2869 -1.22408 0)
(4.50513 -0.910219 -5.92717e-18)
(4.31217 -0.961185 0)
(4.51192 -1.15395 3.77619e-17)
(6.90486 0.113747 0)
(6.91437 0.0773363 1.31449e-17)
(6.90295 0.0952178 0)
(7.00338 0.0733401 5.28757e-19)
(7.00015 0.0924954 -1.60478e-17)
(7.56419 -0.180614 0)
(7.22913 -0.222232 -4.83752e-18)
(7.3651 -0.220935 4.98103e-18)
(7.40579 -0.178682 0)
(6.64121 0.185549 0)
(6.75369 0.0936668 -6.92851e-17)
(6.72096 0.16491 4.96123e-18)
(6.65604 0.135568 4.27719e-17)
(6.08817 -4.23114 -4.86765e-18)
(6.01151 -4.14114 0)
(5.98421 -4.22128 0)
(6.11279 -4.17461 0)
(6.28328 2.43132 1.20216e-18)
(6.31648 2.4559 -6.66975e-19)
(6.30376 2.39199 1.00448e-18)
(2.84762 -1.04721 0)
(2.75657 -1.15194 7.03767e-18)
(2.76381 -1.07091 -7.41864e-18)
(2.85317 -1.14696 -5.69109e-18)
(6.5169 0.213202 -9.22567e-18)
(6.39801 0.243961 3.673e-18)
(6.46523 0.187126 9.21222e-17)
(2.29846 -0.302806 -2.15937e-17)
(2.10277 -0.0165802 2.35871e-17)
(6.94256 0.148951 0)
(2.14144 -0.195769 -9.81514e-19)
(5.40127 0.117808 -1.19653e-16)
(6.99572 0.0210258 4.51214e-17)
(7.01993 0.0764853 1.89951e-17)
(2.27552 -1.13053 -6.81941e-18)
(2.51705 -1.18737 1.25387e-17)
(7.01152 0.117594 5.62033e-17)
(7.01033 0.0850869 6.137e-17)
(7.00901 0.0922799 -2.02187e-17)
(6.95834 0.20517 8.15492e-17)
(7.19249 -2.30544 1.57319e-17)
(7.00336 0.244391 0)
(6.05359 -0.0856138 1.5269e-17)
(1.56198 -0.262634 -2.82731e-20)
(2.10047 -0.320197 0)
(6.77847 0.236223 -5.64321e-17)
(3.75739 -1.2162 0)
(7.43612 0.0161876 -4.67844e-17)
(6.9997 0.14456 4.23266e-17)
(6.79941 -0.0138568 0)
(7.86673 -0.417645 0)
(7.33917 0.338238 0)
(7.32457 0.411594 3.15322e-17)
(1.69546 0.50193 2.01522e-17)
(7.73164 -0.291826 7.69226e-17)
(7.66996 -0.354647 0)
(7.13887 0.176993 -5.53375e-18)
(6.85206 0.281222 0)
(7.36721 -2.52193 8.57486e-18)
(6.0911 -0.0729011 1.33382e-17)
(7.1717 -0.167426 -1.2252e-18)
(7.11256 -0.215842 3.37693e-18)
(7.15447 -0.194015 4.68513e-19)
(7.57075 -0.231147 0)
(6.65322 -0.441551 -6.1068e-18)
(6.63069 -0.554887 8.4271e-18)
(8.09566 -0.225129 3.6584e-17)
(8.1457 -0.138487 -3.71979e-17)
(8.06224 -0.132689 8.09782e-17)
(6.9584 -0.125577 2.01843e-18)
(6.8634 -0.103071 2.19526e-18)
(6.97555 0.181863 2.40935e-17)
(6.97055 0.156133 2.36318e-17)
(7.00055 0.0234109 2.52651e-17)
(7.00303 0.0371333 5.52057e-17)
(6.41891 -0.365558 0)
(3.2763 0.520097 0)
(6.79567 -0.44775 0)
(6.77319 -0.566484 0)
(7.14571 -0.167558 5.26939e-19)
(6.98379 0.258747 -2.46992e-17)
(6.30745 -0.086007 -8.13732e-18)
(7.00351 0.172317 -4.33744e-17)
(6.99335 0.212778 0)
(6.99244 0.194224 9.37943e-19)
(2.1161 0.320423 0)
(6.93658 0.115968 -1.28646e-17)
(6.94634 0.104672 1.27068e-17)
(7.43705 -3.34757 7.50218e-18)
(7.34956 -3.01412 0)
(7.38489 -2.89777 3.08467e-18)
(7.39963 -0.375592 -6.77266e-17)
(7.16774 -0.0550835 0)
(8.27721 -0.026366 0)
(6.61564 -0.0613105 -2.54572e-18)
(6.57149 -0.0546461 -1.87113e-17)
(6.86709 -0.0589339 2.63393e-17)
(4.64092 -0.255947 6.3498e-17)
(4.853 -0.253863 0)
(7.50275 -0.396822 -7.82703e-17)
(7.446 -0.369142 6.15059e-17)
(8.06836 0.0353005 -3.43963e-17)
(8.16759 -0.119524 0)
(6.0203 -0.154437 0)
(7.06783 -0.00455584 0)
(7.18025 0.39064 1.07028e-17)
(7.15859 0.340594 0)
(8.06859 -0.138511 0)
(8.27366 -0.105196 -2.23942e-17)
(1.74673 0.559858 0)
(7.11489 -0.247639 -8.93154e-19)
(7.25286 0.00870477 0)
(4.61359 -0.734605 -3.06095e-17)
(7.22293 0.123106 3.30478e-19)
(7.23271 0.0811046 4.66687e-18)
(1.03396 -0.0875165 -7.96135e-17)
(3.72101 0.436661 1.52693e-17)
(3.5685 0.620496 -9.53172e-18)
(6.79796 0.213827 4.98286e-17)
(6.9974 0.0542187 -2.35823e-17)
(6.99263 0.0728169 -2.48524e-17)
(5.29264 -0.988771 -3.20447e-17)
(6.49644 2.02397 -1.90875e-18)
(6.15395 0.0126948 -3.47955e-17)
(6.0282 -0.0402238 0)
(2.71544 -1.2178 1.23915e-17)
(2.74307 -1.31556 -1.25578e-17)
(6.66038 0.0824619 -4.31794e-19)
(6.55146 0.00170038 7.3236e-17)
(6.65076 0.0151694 0)
(6.99969 0.0939954 5.1037e-17)
(7.00294 0.126376 1.97122e-18)
(2.49316 0.655193 0)
(6.96569 0.249683 -5.18212e-17)
(6.60773 0.244056 -5.39287e-17)
(6.57582 0.31547 -3.21371e-17)
(6.86563 0.235065 9.64118e-17)
(6.90391 0.235864 -6.941e-17)
(6.92081 0.199706 -2.75981e-17)
(7.30018 0.0560268 -5.40406e-17)
(6.27102 -0.014433 2.36996e-17)
(6.38715 0.0464116 -5.83946e-17)
(6.16958 -0.175196 -1.3512e-17)
(6.28445 -0.0943256 -8.27246e-17)
(7.51932 0.0101811 0)
(7.66917 0.0761763 -3.05591e-18)
(7.17704 -0.142451 -2.11355e-17)
(7.87456 -0.00383357 5.43956e-17)
(6.59072 2.09026 1.19946e-18)
(6.98111 0.137821 3.31683e-18)
(7.04626 -0.316899 0)
(7.08486 -0.26785 6.10429e-18)
(4.28288 -0.429917 0)
(4.58698 -0.462316 7.10285e-17)
(7.46855 0.186879 -5.21715e-17)
(7.82326 0.156007 -2.6234e-17)
(7.52386 0.117186 -9.56116e-18)
(7.43806 0.139488 6.17288e-18)
(5.66269 -0.117354 0)
(5.46792 -0.151693 0)
(3.45411 -1.52837 -2.08492e-17)
(3.25451 -1.54345 0)
(3.17714 -1.71532 -1.76887e-17)
(2.82002 -1.68121 -1.55015e-17)
(7.01671 0.0540155 -7.33328e-18)
(6.73263 0.203369 0)
(6.81257 0.191052 0)
(7.52229 0.0275426 0)
(7.85727 0.0343357 -6.36013e-17)
(4.05845 0.228777 -2.83058e-17)
(4.25281 0.183943 2.39146e-17)
(8.34513 0.0811036 -1.50945e-17)
(8.21343 0.144348 -1.90208e-16)
(8.07067 0.0430415 -7.15164e-17)
(7.1442 0.0790389 0)
(7.70571 0.236002 0)
(7.03275 0.0816341 0)
(7.41878 -0.0498089 0)
(7.02395 0.186652 -4.69196e-16)
(4.90634 0.0319394 5.28725e-16)
(7.4579 0.17635 8.74688e-17)
(7.38179 -4.01357 0)
(7.44925 -3.85529 0)
(6.98833 0.0254578 -2.44749e-17)
(6.95218 0.0473756 -5.76683e-17)
(7.02185 0.0421112 1.90182e-17)
(6.93699 0.0614141 8.39152e-17)
(7.90233 -0.259517 6.23384e-17)
(5.01155 -0.0323766 -4.46353e-17)
(5.1775 -0.0955006 -5.71062e-17)
(5.34419 -0.00565081 8.95323e-17)
(6.89435 0.12379 0)
(6.88242 0.147223 0)
(6.85309 0.182224 0)
(6.87432 0.173643 -2.85007e-17)
(6.83311 0.215249 0)
(7.00135 0.0626853 3.78434e-17)
(7.31133 -0.0719226 5.55979e-17)
(7.02359 -0.125224 -4.73358e-17)
(7.56833 -0.366387 1.05712e-16)
(7.66121 -0.300129 -7.06694e-17)
(7.64018 -0.279079 -6.5191e-17)
(7.61771 -0.262414 0)
(7.44822 -0.277755 2.46874e-17)
(7.52046 -0.303025 -2.46158e-17)
(4.77029 -0.0791401 -1.96559e-17)
(6.90781 -0.0365427 -6.93582e-18)
(7.82026 -0.230599 2.27531e-17)
(4.99465 -0.406159 0)
(5.16741 -0.34987 -2.5406e-17)
(5.37005 -0.353939 -4.38387e-17)
(3.22113 0.464699 9.03096e-18)
(3.24634 0.524038 7.95257e-18)
(6.3954 0.105608 2.8725e-17)
(6.30394 0.135757 0)
(3.45644 -0.87379 -3.16178e-18)
(3.37289 -1.04356 0)
(7.69693 -0.100008 -1.56095e-17)
(7.85141 0.0309924 0)
(7.77791 0.11053 2.99141e-18)
(3.79466 0.890304 3.9105e-18)
(3.74927 0.880997 3.70337e-20)
(5.12844 -3.20199 4.8204e-19)
(5.14327 -3.28628 -4.41741e-19)
(2.62323 -0.908032 0)
(4.06659 1.90625 -1.17845e-18)
(7.94794 0.192636 -6.99498e-20)
(5.93854 1.07726 0)
(6.53837 0.966642 8.18473e-20)
(6.22882 0.901789 -2.53934e-19)
(2.51273 0.437843 0)
(5.98889 -2.26908 -3.7026e-19)
(9.49198 1.1205 -1.04054e-18)
(8.02282 0.43171 2.94538e-19)
(9.00794 -0.310094 2.3533e-18)
(6.55182 3.2956 -1.18752e-19)
(2.62424 0.461018 4.16331e-18)
(5.51733 -4.31207 9.17475e-19)
(6.98541 -4.83794 0)
(3.75374 -0.754499 0)
(9.42405 1.10426 0)
(5.45164 -4.22874 0)
(5.52333 -4.26701 0)
(6.12837 2.15148 5.0647e-20)
(6.13221 2.17014 0)
(6.48584 0.643406 1.5838e-19)
(7.12652 0.85397 2.60447e-20)
(7.12123 0.89654 -2.92072e-20)
(5.97162 1.00022 1.6928e-19)
(7.42376 -1.17584 1.40026e-19)
(7.45266 -1.26307 7.08693e-20)
(5.96885 -4.6549 9.84134e-19)
(6.26697 0.887609 -1.43862e-20)
(6.33085 0.84982 0)
(7.56272 1.04568 1.7065e-19)
(7.46864 0.782844 -8.02574e-21)
(7.47036 0.82039 -2.37564e-19)
(7.17398 0.90021 0)
(6.60102 -2.17587 0)
(6.59801 -2.11981 -1.10857e-21)
(3.52393 -2.29205 2.11316e-18)
(6.39982 1.06573 1.11173e-19)
(6.3953 1.03391 -2.9605e-20)
(5.42345 -3.96641 0)
(1.54195 -2.05951 3.42583e-17)
(3.94823 1.76696 8.16068e-19)
(4.00327 1.79809 -1.56345e-20)
(2.53837 0.0301546 4.42187e-18)
(3.99882 -1.64657 -1.94277e-17)
(6.03429 2.58838 4.97261e-19)
(8.6766 0.827612 3.94379e-19)
(6.63617 -4.8114 -2.31998e-19)
(2.34651 -0.956099 -1.58113e-18)
(6.66841 2.28504 0)
(6.76801 2.4928 -4.75795e-20)
(6.14587 -2.44337 1.5973e-19)
(3.43486 1.38658 -1.8631e-20)
(6.96735 -4.78377 -3.28286e-19)
(6.98351 -4.77046 8.39189e-19)
(6.13342 -1.56738 0)
(7.25927 -1.44582 0)
(7.0759 -1.71789 -1.46615e-19)
(6.9549 2.92716 -2.58708e-19)
(7.26192 0.628379 -1.06154e-19)
(7.33729 -1.56932 9.08358e-21)
(6.34468 2.33239 0)
(4.88456 0.904893 0)
(8.42455 0.268485 0)
(6.02528 -2.39763 -1.06111e-19)
(2.88124 -3.47599 -2.59608e-20)
(2.99981 -3.25594 1.3585e-18)
(6.80323 -0.80046 0)
(6.81613 -0.904077 9.36434e-18)
(6.3446 -4.74288 -1.03415e-18)
(6.91118 2.73504 -1.28296e-19)
(3.36481 -1.89695 1.31627e-18)
(7.89624 0.734093 -5.10973e-19)
(5.95439 -4.70159 0)
(6.49305 3.33973 0)
(6.43016 3.30196 6.46899e-20)
(6.08278 2.63978 0)
(5.04428 -3.257 -4.44283e-18)
(6.59242 3.72622 0)
(6.73687 2.81836 5.20797e-20)
(6.64525 1.02817 0)
(4.21039 0.979163 5.82063e-19)
(4.18734 0.938387 2.86393e-19)
(6.16054 0.679787 4.89108e-19)
(7.806 0.770734 0)
(7.79425 0.81359 0)
(7.87972 0.780427 5.04608e-19)
(5.63681 -2.75177 9.11833e-18)
(6.94422 1.11263 9.2475e-22)
(8.21244 -0.500491 0)
(8.18771 -0.4168 -1.0428e-19)
(2.32051 -2.00698 5.39235e-18)
(6.87287 0.871046 -1.47097e-20)
(6.89385 0.899877 0)
(2.6917 -0.130583 6.48692e-18)
(2.75341 0.0368822 0)
(8.45226 -0.206656 -8.06568e-19)
(8.44168 -0.153745 -5.30968e-19)
(6.2383 3.342 2.38181e-21)
(7.07691 -4.77872 3.68751e-18)
(3.85434 -0.889542 1.72769e-18)
(6.80661 2.37958 1.71193e-20)
(6.75309 2.70038 -1.9653e-19)
(6.37908 2.46772 1.4724e-18)
(7.81297 -0.774783 -6.66068e-21)
(2.66502 -4.46199 6.39024e-18)
(7.0424 0.908178 -1.77313e-20)
(7.04236 0.871787 9.95685e-21)
(7.60233 3.19688 3.90555e-19)
(7.27246 -1.59614 0)
(7.12919 -1.66809 8.18591e-20)
(5.73862 -4.62151 1.35753e-18)
(1.62232 -1.38433 -6.78127e-18)
(4.28101 1.49449 2.18685e-18)
(8.27025 -0.820358 9.13705e-19)
(5.60371 -2.69124 -2.49807e-19)
(5.61406 -2.76234 6.12513e-19)
(4.11632 1.61341 -9.23444e-19)
(4.04646 1.75258 -1.22681e-18)
(7.36067 -1.49703 -8.04996e-21)
(7.33855 -1.44783 6.28195e-20)
(7.44592 -4.10209 0)
(7.96187 -4.98343 0)
(7.68922 -0.703731 2.6545e-19)
(8.12911 -0.413257 8.16133e-19)
(8.18702 0.94549 0)
(3.7314 0.971843 -3.68007e-18)
(7.40073 0.989155 0)
(7.79703 -3.20321 9.70497e-19)
(2.37927 -2.09726 2.03346e-17)
(7.75868 -4.31688 0)
(6.48439 2.2925 -5.76558e-20)
(5.40568 -4.23593 -3.42302e-19)
(5.41501 -4.25593 1.42721e-18)
(6.26205 2.38012 0)
(6.29509 2.37259 -3.57201e-19)
(6.78879 2.25809 0)
(4.5061 -0.0374616 0)
(6.42705 0.581492 -9.8419e-20)
(9.1148 -2.70482 1.52856e-18)
(5.8931 -2.36405 0)
(6.54768 -2.73871 0)
(6.60157 0.83384 -8.83205e-20)
(7.12691 -4.38965 8.26477e-20)
(6.69757 -0.90186 1.71931e-17)
(6.93177 -1.21296 2.6309e-20)
(7.46713 -4.90562 -2.48623e-18)
(7.52864 -4.88782 0)
(6.04264 1.31208 0)
(2.17756 -4.08955 1.00344e-17)
(3.38401 0.640736 -1.83935e-18)
(6.75002 3.43878 2.28018e-19)
(6.33123 -2.10276 1.13066e-19)
(6.10222 3.18109 0)
(4.23991 1.35051 8.25059e-19)
(4.31012 1.26668 1.5761e-18)
(7.24102 -0.7277 -3.54744e-19)
(5.86561 1.09625 3.13291e-19)
(7.01311 -1.48835 -1.0493e-20)
(7.01923 -1.56305 1.48352e-19)
(7.73279 1.08978 -2.01132e-19)
(6.5241 0.606882 -1.71196e-19)
(6.89468 0.806134 0)
(6.98056 0.799887 7.97214e-21)
(5.05481 -3.31108 0)
(4.87931 -3.35506 0)
(3.91648 -0.726927 0)
(2.67551 0.575878 -3.40593e-18)
(2.63807 0.539613 0)
(2.64751 0.686498 0)
(7.40693 -0.214696 1.02406e-19)
(6.88576 2.69929 4.50016e-20)
(7.60797 3.25062 2.23463e-19)
(4.00267 -1.54573 0)
(3.94416 -1.56733 7.47057e-19)
(4.91506 0.873431 0)
(6.64143 2.31911 8.93151e-21)
(4.28331 1.72381 0)
(2.54694 -0.906075 4.49139e-18)
(4.71959 -0.0429618 2.27228e-18)
(4.77603 -0.0568602 -9.7643e-20)
(7.8913 0.607457 -4.85362e-19)
(6.8108 0.64894 7.86722e-18)
(6.6952 2.7375 3.37165e-19)
(4.50857 0.0944645 0)
(4.53044 0.0307625 0)
(7.52765 1.4667 -3.94891e-20)
(6.58773 2.31835 0)
(6.74411 -4.8112 0)
(6.36736 -0.518723 -6.92119e-21)
(6.89288 -4.82678 -1.17841e-18)
(6.28644 0.991686 -1.18479e-19)
(6.27825 0.955363 1.79687e-19)
(3.75335 -0.673221 -1.015e-18)
(6.63693 -1.57137 3.38577e-20)
(7.03231 -5.00681 -4.71251e-19)
(6.65116 2.23795 1.69319e-20)
(6.78961 -4.76327 6.20965e-19)
(7.0928 0.43051 -1.1101e-20)
(7.03313 0.432382 -5.22208e-21)
(4.19133 1.70526 -1.72757e-18)
(4.52671 0.82769 0)
(4.52219 0.884033 3.34628e-21)
(4.87499 -4.59423 7.16142e-19)
(6.48687 0.392135 0)
(6.47045 2.18277 1.41757e-19)
(6.02131 -4.68213 0)
(6.01538 -4.70503 1.01108e-18)
(4.36155 0.616377 -2.60134e-19)
(6.73897 0.902638 0)
(6.81163 0.91716 0)
(6.59482 2.17802 1.36859e-20)
(6.75313 2.28803 -2.11692e-22)
(6.79835 2.3248 -1.76579e-20)
(4.76745 -5.1078 -3.70863e-19)
(8.10108 0.537718 -3.81196e-19)
(8.18618 0.532271 0)
(9.05173 -2.74855 3.08239e-18)
(7.22258 -1.56633 -9.69893e-20)
(7.21916 -1.49194 -4.43923e-20)
(7.13884 -1.60734 2.21333e-19)
(5.90724 0.485215 8.43068e-20)
(5.90756 0.54379 0)
(6.19368 0.344377 0)
(6.17457 0.297496 0)
(7.42688 -0.700021 0)
(7.46347 -0.667253 0)
(8.53223 1.0104 5.90204e-19)
(5.71914 3.3878 1.50093e-19)
(6.83907 2.93414 2.4985e-19)
(6.88761 2.9139 0)
(7.39517 -4.40649 5.14407e-18)
(6.03341 -0.330822 0)
(7.74426 -4.88798 0)
(4.53755 0.487167 8.59199e-19)
(6.73917 -4.78866 -6.92445e-19)
(6.6604 -4.78548 1.45777e-18)
(7.72492 -4.65465 3.48245e-19)
(6.12288 -1.73933 4.02271e-19)
(7.0588 -4.93754 0)
(6.56278 2.20907 3.20342e-20)
(6.51995 2.1725 0)
(8.16546 -1.78995 -5.33704e-19)
(8.11945 -1.11913 -8.83577e-19)
(6.94111 0.965024 5.65902e-21)
(4.41413 -0.147787 0)
(7.24285 -4.86661 7.93121e-19)
(5.88406 2.75459 0)
(5.81402 2.74171 2.25646e-18)
(6.75126 -4.82855 -1.73224e-19)
(4.67247 0.260771 1.56689e-18)
(8.21538 1.01921 0)
(1.70237 -1.75031 0)
(6.51929 1.66659 0)
(6.44056 1.76525 0)
(6.21747 -1.74225 5.80635e-19)
(6.64132 1.07601 2.48445e-20)
(6.57173 1.06996 -9.21149e-21)
(6.60666 2.58504 1.30974e-20)
(6.57025 2.60994 -8.08803e-21)
(6.77729 0.592873 0)
(6.20625 2.42441 -2.42482e-18)
(8.90028 0.608914 0)
(8.78363 0.601606 1.54973e-18)
(6.16087 0.947743 0)
(6.18003 2.93292 0)
(6.21474 3.069 2.53213e-20)
(6.92158 -1.05615 -7.56916e-21)
(6.66643 3.05088 -1.14295e-19)
(6.64651 3.19063 0)
(6.58005 -1.41332 -2.37082e-19)
(7.91217 -0.898288 2.40277e-19)
(8.03148 -0.791922 6.37733e-19)
(6.05553 2.19624 -1.88429e-19)
(6.10813 2.18097 0)
(7.55451 0.774383 -8.54248e-21)
(8.46877 0.829466 -3.59877e-20)
(8.47455 0.892497 3.34455e-20)
(6.44077 -1.67268 -3.47004e-19)
(6.3544 -1.77659 0)
(2.09537 -1.12441 0)
(5.70175 -4.4284 -1.15251e-18)
(5.58394 -4.38663 1.33921e-18)
(6.95921 -1.81211 -3.89401e-20)
(2.88303 0.516948 0)
(6.90001 2.77786 -7.93969e-21)
(6.86543 2.78969 1.13478e-19)
(5.22919 -4.16199 0)
(4.54528 -3.61613 -3.27351e-18)
(6.55228 -1.65746 -2.64092e-20)
(6.57974 -1.57946 1.03558e-19)
(6.47346 -1.64035 3.03733e-19)
(4.1717 0.550805 2.53356e-18)
(4.10581 0.660434 1.44007e-18)
(6.82072 -4.73749 2.07724e-18)
(7.62931 0.465569 2.67681e-19)
(6.80458 0.516601 -4.91174e-21)
(6.67911 -4.77304 0)
(6.65645 -4.75954 0)
(6.72036 -4.77524 0)
(3.04391 -3.08553 1.17876e-18)
(3.08209 -3.13838 3.33452e-18)
(4.87832 -1.18034 0)
(6.54424 -1.19955 -9.49701e-20)
(8.9934 -0.0233746 -2.66772e-19)
(9.02389 -0.0585785 0)
(6.06497 -1.0502 -4.34443e-19)
(6.07865 -1.12029 2.8135e-19)
(7.04654 -4.79756 -2.4708e-18)
(7.01882 -4.7826 2.2478e-18)
(7.05954 -4.82306 0)
(4.38424 1.04493 9.86703e-19)
(4.37227 1.15352 7.48739e-19)
(2.10391 -1.72507 0)
(6.85603 -4.81198 -1.45726e-18)
(6.87619 3.12177 -5.16885e-20)
(6.01417 2.30029 3.79675e-18)
(5.77692 -4.5719 1.06793e-18)
(5.77926 -4.59804 0)
(2.63477 -3.29186 -8.1704e-18)
(8.3033 -0.599535 9.22047e-19)
(8.01026 0.196441 6.68602e-19)
(8.13723 0.168364 2.01409e-19)
(6.3431 0.918351 -2.67673e-19)
(2.57738 -0.106936 -6.40611e-18)
(6.37422 3.08434 0)
(6.46096 3.0841 0)
(6.66847 -0.707713 -1.14966e-17)
(6.72351 -0.802072 0)
(6.99638 -3.57738 0)
(8.32706 -0.295848 -8.79947e-19)
(8.30183 -0.226102 1.31153e-18)
(8.05638 -1.03709 0)
(7.98843 -1.00951 -3.1277e-19)