/*--------------------------------*- C++ -*----------------------------------*\
  =========                 |
  \\      /  F ield         | OpenFOAM: The Open Source CFD Toolbox
   \\    /   O peration     | Website:  https://openfoam.org
    \\  /    A nd           | Version:  6
     \\/     M anipulation  |
\*---------------------------------------------------------------------------*/
FoamFile
{
    version     2.0;
    format      ascii;
    class       volScalarField;
    location    "600";
    object      nuTilda;
}
// * * * * * * * * * * * * * * * * * * * * * * * * * * * * * * * * * * * * * //

dimensions      [0 2 -1 0 0 0 0];

internalField   nonuniform List<scalar> 
29884
(
0.27646
0.225798
0.122063
0.155995
0.15636
0.129646
0.19416
0.264021
0.213696
0.141145
0.153476
0.141699
0.15303
0.287653
0.280223
0.192013
0.28746
0.266557
0.279882
0.172736
0.278322
0.118572
0.142526
0.140649
0.144303
0.155025
0.194208
0.219169
0.150196
0.25379
0.14866
0.162947
0.195277
0.185292
0.143752
0.147362
0.249563
0.166585
0.17934
0.187605
0.231697
0.18485
0.17633
0.200847
0.183852
0.166692
0.175478
0.176228
0.136633
0.170883
0.167684
0.174261
0.193059
0.275215
0.263412
0.267672
0.187311
0.284436
0.262419
0.266779
0.198487
0.190279
0.135282
0.171049
0.166636
0.172807
0.280408
0.203955
0.302646
0.211415
0.141248
0.149598
0.143864
0.10938
0.318166
0.281249
0.234287
0.231308
0.226012
0.21158
0.180243
0.197705
0.114912
0.142317
0.124042
0.0971235
0.148764
0.156689
0.139269
0.0717897
0.144957
0.156699
0.100437
0.0632632
0.151749
0.000460503
0.139831
0.139903
0.149677
0.0659651
0.139778
0.139244
0.169652
0.177091
0.153331
0.196334
0.0779028
0.0764085
0.153779
0.138859
0.16261
0.000154703
0.135791
0.119864
0.141552
0.142058
0.149603
0.111319
0.147711
0.136896
0.139771
0.141033
0.161303
0.140071
0.136722
0.262136
0.22504
0.203294
0.301305
0.147683
0.143026
0.147268
0.254379
0.237568
0.132523
0.144166
0.165758
0.15201
0.163521
0.163664
0.155434
0.16197
0.173173
0.157147
0.170745
0.173828
0.160303
0.165433
0.178543
0.173858
0.171468
0.0946314
0.0829736
0.183247
0.248803
0.215355
0.198693
0.174845
0.229192
0.200986
0.188839
0.156059
0.154236
0.172865
0.000297783
0.00029493
0.204842
0.160447
0.139514
0.139437
0.212179
0.139218
0.13905
0.118512
0.120553
0.151762
0.143953
0.188992
0.142642
0.155909
0.145591
0.128981
0.131183
0.135142
0.118511
0.132475
0.139602
0.139235
0.155424
0.150269
0.155857
0.141486
0.136659
0.143527
0.146331
0.146728
0.141197
0.146816
0.151875
0.149791
0.21805
0.177367
0.15369
0.142322
0.150033
0.136228
0.144567
0.128919
0.140435
0.18497
0.174416
0.215451
0.219135
0.195027
0.25777
0.0637346
0.100731
0.0628947
0.112409
0.0388609
0.0368967
0.0749083
0.137496
0.119815
0.0852479
0.0345611
0.0718418
0.0538642
0.0102128
0.0764208
0.0639565
0.0670281
0.0813017
0.0705351
0.0733533
0.0789148
0.0763534
0.13805
0.156104
0.0395147
0.0529606
0.000798062
0.0648041
0.0541208
0.0665893
0.123572
0.0702351
0.0666101
0.113587
0.0902358
0.0723487
0.0777045
0.114612
0.111342
0.0371125
0.0370527
0.0440372
0.0414576
0.100849
0.103449
0.0982569
0.102662
0.039546
0.00102164
0.0820895
0.0610008
0.0732513
0.122934
0.122584
0.0607679
0.0865171
0.088045
0.046978
0.0552469
0.0495542
0.0765679
0.0713007
0.0539758
0.0573722
0.0473276
0.156543
0.0790633
0.129478
0.0898483
0.138269
0.116847
0.11661
0.0590879
0.0002454
0.137801
0.0484874
0.0794388
0.0804586
0.0438581
0.0711125
0.0714569
0.108473
0.0792482
0.0791269
0.0577853
0.0886052
0.0728944
0.0749024
0.0733231
0.053535
0.0594533
0.0752156
0.131631
0.11117
0.112113
0.112844
0.110309
0.0418013
0.0327972
0.0349247
0.0744858
0.0726891
0.07499
0.0747386
0.0736555
0.0811849
0.0635991
0.0583348
0.0584892
0.0779234
0.0888403
0.0407514
0.0418449
0.0439707
0.0388576
0.11127
0.112837
0.112969
0.111369
0.0632578
0.0588863
0.137701
0.105584
0.0475586
0.0457698
0.0737216
0.121353
0.0420633
0.111634
0.135628
0.0464295
0.0503512
0.0486591
0.0480465
0.0720635
0.0712575
0.0651626
0.0864406
0.0874017
0.0849388
0.0623926
0.0568642
0.0539789
0.0551225
0.0574925
0.063261
0.0736349
0.132686
0.121382
0.109962
0.110161
0.120527
0.132995
0.000467575
0.0402873
0.0738311
0.0730835
0.136944
0.144253
0.129411
0.0999398
0.0952808
0.0775497
0.0726755
0.0755045
0.0712999
0.117159
0.126831
0.122626
0.131524
0.0628167
0.0686045
0.0658825
0.0655295
0.088951
0.0851595
0.0834533
0.0910879
0.0716539
0.0738728
0.0737243
0.0700178
0.0689436
0.065336
0.0591028
0.0831371
0.0708007
0.0922469
0.0846771
0.0880449
0.0896431
0.0362267
0.13726
0.138486
0.13946
0.138716
0.0558249
0.0605213
0.0475063
0.0467589
0.0447774
0.0592946
0.0995726
0.042004
0.049838
0.0561914
0.0336022
0.0530943
0.0564955
0.0502331
0.0716375
0.0793122
0.0737224
0.0762216
0.0498797
0.0551007
0.052913
0.0519719
0.130013
0.0640401
0.0616004
0.0662167
0.0600351
0.0699934
0.0731749
0.0692517
0.0719321
0.0715085
0.0695167
0.151323
0.149991
0.135428
0.0762956
0.074098
0.0757512
0.0739836
0.122118
0.137917
0.0752488
0.0849081
0.130524
0.145195
0.139335
0.130552
0.15701
0.00584187
0.124271
0.12569
0.0751125
0.0638992
0.0656535
0.067781
0.0622997
0.0814841
0.0904323
0.0864076
0.0859596
0.137948
0.137762
0.138016
0.139677
0.139617
0.165632
0.151107
0.157488
0.158845
0.14059
0.144564
0.142489
0.142419
0.0530873
0.0502855
0.048624
0.0539872
0.104024
0.102846
0.106554
0.0446003
0.0418205
0.0418625
0.0443001
0.136953
0.134701
0.136209
0.000780305
0.00436039
0.138681
0.0106538
0.119838
0.139543
0.13872
0.00116569
0.00184213
0.139039
0.139058
0.13923
0.138879
0.0861567
0.138526
0.127711
0.000298377
0.000355023
0.137321
0.0637964
0.229775
0.139328
0.256055
0.12633
0.140679
0.138848
0.000701859
0.141354
0.134133
0.1403
0.137796
0.0756667
0.127708
0.137801
0.122981
0.134675
0.144436
0.129584
0.124399
0.170303
0.21079
0.240715
0.107522
0.107815
0.139064
0.139044
0.139755
0.139601
0.130123
0.00716335
0.128429
0.121741
0.105269
0.139139
0.12117
0.139124
0.139108
0.139074
0.00269005
0.138418
0.138633
0.0742965
0.0784895
0.0792649
0.122607
0.243811
0.209396
0.128437
0.124455
0.128182
0.101847
0.107119
0.127646
0.128385
0.184403
0.204749
0.128533
0.252149
0.138249
0.138343
0.253144
0.20696
0.000840424
0.126399
0.26152
0.0960384
0.141818
0.14299
0.000370154
0.0760227
0.0696897
0.137492
0.139584
0.139377
0.124427
0.121167
0.131302
0.129582
0.0396404
0.0395535
0.144023
0.141448
0.144975
0.139535
0.139275
0.00111179
0.138942
0.137341
0.136089
0.137816
0.138076
0.138297
0.183993
0.133353
0.136256
0.130163
0.132749
0.160404
0.166214
0.199389
0.177071
0.121108
0.137563
0.13337
0.141359
0.146353
0.138976
0.145752
0.159874
0.150037
0.146678
0.123344
0.119455
0.0562919
0.05175
0.047858
0.0385048
0.13902
0.140663
0.142134
0.253545
0.194389
0.0869984
0.093331
0.200746
0.171945
0.196809
0.145546
0.159307
0.153765
0.164502
0.234686
0.1891
0.18154
0.0734614
0.0725239
0.13877
0.138574
0.139566
0.138298
0.156973
0.111339
0.114688
0.118374
0.137585
0.138192
0.137565
0.137651
0.137244
0.13968
0.162055
0.153483
0.132887
0.139538
0.142453
0.145101
0.135594
0.136183
0.212388
0.267981
0.237977
0.109183
0.11357
0.116025
0.00532526
0.00579968
0.136161
0.133563
0.0649887
0.0607459
0.165909
0.168762
0.162038
0.0447765
0.0421333
0.0835062
0.08258
0.0376052
0.0459916
0.0603077
0.116046
0.109498
0.117326
0.0290404
0.102825
0.00558273
0.0528343
0.0182625
0.0599769
0.034488
0.0172027
0.0945299
0.0616231
0.00716506
0.0178514
0.0187928
0.0894978
0.0897507
0.116164
0.0903453
0.0897562
0.117394
0.0874129
0.0857666
0.0367119
0.11708
0.11649
0.0638505
0.0759287
0.0746489
0.087302
0.0990254
0.0994976
0.0524425
0.110415
0.111301
0.0281714
0.00277196
0.0424331
0.0446346
0.0326418
0.10211
0.0944295
0.0245101
0.0716301
0.0265311
0.0801947
0.0755284
0.101327
0.0121436
0.0916995
0.0912482
0.107386
0.0906169
0.0938764
0.0600111
0.089304
0.0879845
0.0938121
0.102119
0.0365502
0.101765
0.0231675
0.0280309
0.106073
0.0971372
0.0561132
0.0659646
0.0439857
0.0544221
0.0347327
0.0597022
0.0618156
0.0922412
0.0015506
0.0445684
0.0700867
0.104341
0.069031
0.0676979
0.120329
0.0576991
0.0575971
0.0547309
0.00148742
0.0902579
0.0528546
0.0537563
0.0219539
0.100316
0.0988623
0.0402962
0.0419701
0.0389411
0.0394839
0.063081
0.0898187
0.0678825
0.0746905
0.0723652
0.104403
0.0730906
0.00831536
0.0933373
0.0943721
0.0339188
0.0896921
0.0929344
0.0249337
0.00160977
0.0628938
0.0516335
0.0964335
0.0958252
0.0523296
0.0475166
0.0876908
0.0887052
0.0624495
0.0146634
0.0788937
0.0568973
0.039275
0.0398814
0.0730306
0.0593165
0.00240472
0.0417334
0.0876933
0.0153803
0.0151823
0.0955823
0.0955822
0.118839
0.0934057
0.117706
0.0118231
0.0933806
0.0862952
0.110683
0.0817309
0.0608056
0.100364
0.0650835
0.0611595
0.108807
0.00667844
0.0174673
0.0508396
0.102671
0.0698322
0.0641374
0.0696374
0.0957633
0.115654
0.0967963
0.0960927
0.0552431
0.115774
0.101444
0.0981697
0.0807134
0.0770123
0.0706684
0.0360436
0.034632
0.0339777
0.0899804
0.0675684
0.0325892
0.0740567
0.0719749
0.103725
0.0814573
0.0594291
0.0345634
0.0995868
0.100712
0.0567358
0.136224
0.107732
0.0933156
0.0943184
0.0567099
0.0838496
0.0793105
0.114134
0.0895037
0.114753
0.11565
0.0611459
0.102967
0.040975
0.0806875
0.0845892
0.100284
0.102234
0.0544428
0.0890538
0.0876495
0.0554961
0.135318
0.0861058
0.0387867
0.0377406
0.0834445
0.104358
0.10147
0.0821603
0.0769408
0.0752088
0.0446118
0.0483507
0.043834
0.0134657
0.0913738
0.0918323
0.0931432
0.121232
0.121189
0.120567
0.120562
0.0894176
0.0878586
0.0279315
0.0631798
0.0635908
0.0626143
0.0738155
0.11659
0.0229964
0.0924109
0.0805181
0.0750593
0.0322548
0.106172
0.0909826
0.0836107
0.0845347
0.0546788
0.0588522
0.0952213
0.0908509
0.0433286
0.0865146
0.0868459
0.0784999
0.0987731
0.0378797
0.00500114
0.126088
0.124375
0.105757
0.102922
0.105679
0.0811142
0.0822286
0.109181
0.103383
0.0187109
0.0224577
0.117435
0.0789406
0.0727086
0.101682
0.0650102
0.0610664
0.104802
0.0678831
0.0627824
0.0895554
0.0897939
0.070712
0.0306603
0.03028
0.104502
0.104481
0.0160792
0.0264639
0.0198817
0.0959322
0.0442987
0.0654061
0.0663517
0.0119994
0.00867373
0.103539
0.10364
0.104404
0.0733327
0.0678848
0.086352
0.0727976
0.109416
0.0769188
0.0760393
0.0797368
0.0295347
0.0308667
0.118899
0.107094
0.0184066
0.0174904
0.111491
0.111004
0.0911903
0.0915588
0.0917468
0.0777125
0.075043
0.00486521
0.0878671
0.0571883
0.105749
0.0279488
0.0275355
0.0169408
0.0493084
0.0568709
0.050986
0.114965
0.0349076
0.0945998
0.095891
0.115579
0.109749
0.0664687
0.0458563
0.0467145
0.061767
0.0645934
0.100355
0.0997868
0.0985061
0.0673712
0.074522
0.0727503
0.0286866
0.0384753
0.104838
0.0507368
0.0519558
0.0898505
0.0913515
0.0900354
0.0721055
0.0743272
0.0695537
0.0647245
0.108342
0.108196
0.107606
0.109481
0.110006
0.0788468
0.116321
0.0118327
0.0457157
0.0520383
0.0331689
0.0340388
0.0813908
0.0842607
0.0814731
0.0849548
0.0985234
0.0981779
0.0992515
0.100406
0.0980916
0.0669428
0.0641029
0.0333174
0.064725
0.0347815
0.0965734
0.0979017
0.0961974
0.0067325
0.0921601
0.106108
0.103488
0.106551
0.105077
0.107655
0.105164
0.10594
0.0490506
0.0521776
0.0515069
0.0495825
0.057379
0.0531295
0.0710726
0.0945449
0.0939811
0.0938433
0.0987697
0.0873102
0.0297165
0.0488801
0.0442288
0.0547179
0.0520509
0.0396885
0.105601
0.0939458
0.0949746
0.0735949
0.107018
0.104118
0.0900953
0.0963137
0.0766911
0.0735847
0.077181
0.0614714
0.0588595
0.0642711
0.0844819
0.0610336
0.118051
0.117613
0.104707
0.0430119
0.116479
0.117203
0.116332
0.0481992
0.000944088
0.0846457
0.0788812
0.0764867
0.0120594
0.000404874
0.102086
0.07377
0.107793
0.0838898
0.0859014
0.0765592
0.0941907
0.0778427
0.112498
0.0148216
0.0755075
0.0752037
0.0779128
0.0571673
0.100922
0.0995499
0.10192
0.105033
0.105119
0.000659859
0.085262
0.0837354
0.100297
0.103001
0.0983034
0.000975009
0.000783655
0.0914495
0.0421832
0.0358804
0.0769231
0.0805405
0.0798524
0.0775305
0.0865778
0.0541706
0.0521505
0.0907084
0.000600207
0.116314
0.117007
0.0792716
0.0781095
0.0982733
0.0238415
0.0969396
0.0952015
0.0979687
0.0982749
0.0376311
0.084915
0.0856662
0.0855678
0.102959
0.103193
0.121097
0.0867699
0.0901602
0.0535619
0.00195335
0.0432144
0.0947019
0.000561997
0.0527175
0.0913214
0.0900331
0.0141069
0.0825251
0.0807042
0.0982303
0.0987399
0.0870304
0.0829043
0.0581329
0.0589352
0.0553988
0.0763518
0.07756
0.0759549
0.11739
0.118306
0.000931217
0.0238305
0.000502096
0.0974594
0.0124818
0.136031
0.136211
0.136344
0.135984
0.10812
0.0922173
0.0920072
0.13782
0.138151
0.0968086
0.0776899
0.0761636
0.0759078
0.0689954
0.0914059
0.102827
0.105825
0.0931355
0.089179
0.0663287
0.061318
0.0629709
0.0005312
0.0608252
0.0617327
0.0631361
0.0595571
0.118065
0.118585
0.0324614
0.093072
0.0946562
0.116091
0.0830591
0.0842777
0.0809176
0.0574767
0.0550031
0.0603933
0.060967
0.0597651
0.128061
0.0847087
0.0626336
0.060666
0.102729
0.103934
0.091977
0.0919682
0.0927694
0.0912099
0.118937
0.11839
0.09909
0.0845023
0.0857422
0.0829233
0.0981846
0.0959023
0.000322566
0.0754344
0.0769563
0.0378569
0.0336366
0.000439208
0.00076164
0.000752408
0.0396233
0.0390246
0.0234066
0.0238213
0.10354
0.0907033
0.0957586
0.0926191
0.0389898
0.0366559
0.0353486
0.0397816
0.0829067
0.0831327
0.0839084
0.082453
0.000443492
0.000752763
0.00094419
0.00154056
0.00931225
0.0226207
0.0618025
0.0599825
0.00089986
0.074348
0.0257889
0.0916239
0.0913555
0.094028
0.0903319
0.091092
0.0899853
0.105394
0.106932
0.10427
0.102493
0.120044
0.0806163
0.0830615
0.0792026
0.0829435
0.0849034
0.0797265
0.116418
0.104978
0.110049
0.0939364
0.0948978
0.0949631
0.121005
0.114142
0.114903
0.113458
0.0670707
0.0713391
0.0932958
0.112427
0.111598
0.111597
0.000412928
0.000682518
0.0884151
0.0893928
0.0888499
0.0889215
0.056107
0.108223
0.108018
0.106787
0.0912744
0.0926565
0.0930606
0.0907415
0.0865676
0.0884474
0.0845682
0.16319
0.0593924
0.0908141
0.0908813
0.0901375
0.0916017
0.078222
0.0842375
0.104011
0.104954
0.107073
0.106346
0.0418896
0.128407
0.045155
0.0418422
0.105451
0.000366666
0.0829737
0.0931817
0.109478
0.110036
0.109305
0.082488
0.0835675
0.0138359
0.0587667
0.0568646
0.0615256
0.0659629
0.0684766
0.0622879
0.0740717
0.0777353
0.0769318
0.00883953
0.00913113
0.0806892
0.081428
0.102515
0.101174
0.103854
0.00034331
0.0568837
0.000731903
0.102431
0.0812177
0.0776047
0.080628
0.0772232
0.00204454
0.0754165
0.0782331
0.0757756
0.095482
0.081049
0.0875897
0.0870859
0.08796
0.0870701
0.086237
0.08859
0.0425788
0.0395315
0.0415434
0.0402275
0.0783866
0.0758289
0.0791515
0.0780016
0.00128478
0.00986678
0.0890658
0.0895617
0.0887101
0.0898631
0.0951128
0.0959244
0.0965885
0.0376363
0.0853563
0.0847578
0.0872022
0.103348
0.102591
0.102674
0.0945757
0.0966034
0.0952122
0.0971438
0.0984341
0.073343
0.0705716
0.0700718
0.0737465
0.103109
0.104955
0.104244
0.103686
0.065902
0.063804
0.0688085
0.0652784
0.0628833
0.105102
0.104826
0.104492
0.0751248
0.0706852
0.0692597
0.0707961
0.120729
0.119131
0.119434
0.12051
0.0810451
0.0774844
0.0786495
0.0728285
0.0752193
0.0632157
0.0603122
0.0591695
0.0393968
0.0951899
0.0943342
0.0957638
0.0839584
0.0848568
0.067591
0.0855228
0.0875683
0.0873357
0.0855917
0.00138192
0.0927275
0.0948525
0.0934811
0.0941355
0.137051
0.137206
0.0907275
0.0878804
0.0887812
0.0898116
0.086634
0.0877115
0.0836965
0.0543167
0.0582205
0.0535536
0.0797901
0.0822397
0.0800786
0.082127
0.0804933
0.114649
0.0954482
0.0710391
0.0700358
0.0720638
0.068894
0.012387
0.110194
0.0121234
0.0120266
0.0921573
0.0914458
0.0914605
0.0920855
0.062573
0.0835332
0.0828455
0.101285
0.101082
0.100775
0.100663
0.0852312
0.0928334
0.0935616
0.0923342
0.076921
0.0718238
0.0744074
0.0744077
0.0571955
0.115963
0.115896
0.027088
0.031782
0.0859966
0.0838046
0.0849456
0.00124336
0.0652559
0.108531
0.0731747
0.0725557
0.0746025
0.100672
0.0584467
0.0550085
0.0606365
0.11104
0.108404
0.109817
0.0786594
0.0783081
0.128587
0.129617
0.070691
0.0718035
0.0740792
0.0989122
0.0951429
0.0894171
0.0295306
0.0348189
0.0323971
0.026578
0.0259591
0.01176
0.00972791
0.0151006
0.0880991
0.0970647
0.0985749
0.0961924
0.0956244
0.097838
0.102592
0.101969
0.0924748
0.0926439
0.0919206
0.092375
0.073044
0.0756773
0.104011
0.118838
0.0962505
0.0971009
0.083077
0.0854685
0.0815582
0.0847619
0.0867618
0.0857068
0.0229164
0.027434
0.100755
0.0991333
0.0996157
0.100423
0.0723369
0.0743837
0.0751073
0.0762361
0.0445336
0.043912
0.0458358
0.0425182
0.000992819
0.0797282
0.0801077
0.0814424
0.0731453
0.068896
0.0581564
0.0549193
0.107413
0.106602
0.107213
0.0756681
0.0819229
0.0933744
0.0940871
0.0942247
0.0934794
0.0596413
0.0917567
0.0906204
0.0721873
0.07147
0.0730612
0.0704994
0.0990675
0.099703
0.0971142
0.0159788
0.0172526
0.0136738
0.0823742
0.0840122
0.0798665
0.0554837
0.0528822
0.0791455
0.0768629
0.0881278
0.0894006
0.0898533
0.100985
0.0725914
0.0757781
0.0761699
0.078375
0.0669052
0.0631426
0.0648677
0.0651566
0.111326
0.109452
0.109582
0.111091
0.10763
0.0835912
0.0846776
0.0828718
0.0856566
0.102282
0.0919589
0.0916067
0.0927019
0.0909574
0.0903115
0.0912994
0.091801
0.0899421
0.034415
0.0833744
0.082736
0.0927249
0.0932593
0.000718133
0.0161152
0.0701657
0.0696046
0.0982522
0.0993807
0.0908278
0.0901911
0.0931306
0.0893529
0.0881746
0.00780026
0.00984518
0.0899298
0.0868826
0.088525
0.0884324
0.1159
0.0876997
0.0866577
0.0872527
0.0128113
0.0840107
0.0833116
0.0854472
0.0817044
0.0666598
0.0690025
0.0666376
0.0688605
0.0835084
0.0830857
0.0824811
0.109003
0.0489518
0.0474721
0.0466117
0.0496371
0.0272759
0.0285102
0.0894988
0.10013
0.100704
0.100178
0.0698853
0.0733606
0.0725199
0.0705985
0.112489
0.113585
0.0944599
0.0960734
0.0957727
0.0946666
0.0599578
0.0774389
0.0773019
0.0684796
0.0274964
0.0229486
0.0729085
0.074996
0.119007
0.118568
0.119488
0.0983893
0.0977157
0.0973397
0.0430631
0.0400835
0.042661
0.0942875
0.0951254
0.0958237
0.093603
0.0345981
0.0610028
0.0610937
0.0631143
0.0590245
0.00414666
0.0415087
0.0659869
0.0697444
0.0986623
0.100131
0.100033
0.0986102
0.128274
0.088716
0.0879263
0.0879626
0.088626
0.101068
0.102495
0.101069
0.0641732
0.0909963
0.0903051
0.0910647
0.097253
0.0998928
0.0623003
0.0676211
0.0653986
0.0862806
0.0855603
0.0874333
0.11173
0.03654
0.109817
0.0504348
0.0463392
0.088223
0.0874973
0.0909282
0.0252715
0.0218757
0.0273559
0.0998387
0.0901678
0.091353
0.0896926
0.055471
0.0544053
0.0870433
0.0846261
0.0852655
0.0865239
0.0910361
0.090543
0.0435786
0.0455224
0.090369
0.0885569
0.0903931
0.0883002
0.124071
0.124493
0.0703428
0.089415
0.0893564
0.0891458
0.0716958
0.072685
0.0714804
0.0274206
0.0666218
0.0663796
0.0690951
0.0639766
0.0749014
0.0776144
0.0762597
0.0763393
0.0802192
0.0765637
0.0785619
0.120443
0.106643
0.118957
0.110934
0.0400446
0.0790468
0.0781103
0.114181
0.115788
0.0762421
0.0747268
0.0738385
0.0769869
0.0903631
0.0895315
0.120575
0.118738
0.0679628
0.0971822
0.0977976
0.0984635
0.0518788
0.0475042
0.0508214
0.0477225
0.0299462
0.034509
0.0784346
0.0808224
0.0785981
0.0595985
0.0531734
0.0571706
0.0560404
0.0953431
0.0939333
0.10862
0.0985281
0.0775285
0.0811558
0.0798938
0.0784318
0.101448
0.0406834
0.0427511
0.0450564
0.0390986
0.107706
0.105902
0.10864
0.0334533
0.0349281
0.0523521
0.0529807
0.0509004
0.0544574
0.0739128
0.0769902
0.0514035
0.053367
0.0953198
0.0648502
0.0893408
0.0880587
0.0818651
0.00594626
0.110724
0.110244
0.110809
0.0785944
0.0360454
0.0650722
0.0993852
0.0912236
0.0894168
0.104496
0.0774144
0.0782903
0.0774034
0.0529592
0.0544865
0.000284105
0.0612681
0.0649515
0.114998
0.11303
0.113655
0.114416
0.101543
0.103122
0.102621
0.102047
0.102586
0.103597
0.101862
0.104182
0.0580156
0.0587531
0.0603664
0.0564163
0.106493
0.105496
0.106338
0.105511
0.0734916
0.0751816
0.0703532
0.0392158
0.0350447
0.0540832
0.0903522
0.0882102
0.123534
0.122338
0.0552199
0.0251474
0.0937912
0.0943761
0.0948029
0.0575877
0.0667482
0.0654757
0.0641285
0.0678886
0.102962
0.105572
0.104217
0.104892
0.104948
0.0477606
0.0443919
0.0465901
0.0453064
0.0872014
0.0867439
0.0874576
0.0864525
0.0749367
0.0733382
0.0737389
0.0745217
0.108718
0.109192
0.109192
0.108632
0.0576376
0.0543215
0.0565953
0.0551777
0.0726844
0.0713533
0.0813745
0.0790285
0.0793186
0.0804518
0.114571
0.117336
0.115788
0.120773
0.0920793
0.0905179
0.0909625
0.0725353
0.0680975
0.0715809
0.0669693
0.0675921
0.0638247
0.065084
0.0243086
0.102884
0.102144
0.000270387
0.0812521
0.0833234
0.081637
0.0828389
0.0811535
0.069486
0.0790789
0.053692
0.00620228
0.00551207
0.00749968
0.0880181
0.0890705
0.128001
0.0829894
0.0819641
0.0768699
0.0732473
0.0754107
0.0764056
0.0778569
0.0769013
0.0781159
0.0950914
0.0951542
0.0949585
0.0853617
0.0887902
0.0505402
0.0545844
0.0526598
0.000242349
0.0751973
0.076355
0.110014
0.108512
0.0673955
0.0687576
0.0659197
0.0700595
0.0296267
0.0330876
0.0343918
0.0367166
0.11884
0.117683
0.08017
0.0796422
0.0811498
0.0786987
0.0715927
0.0840399
0.0820661
0.110578
0.107983
0.109139
0.109354
0.0847501
0.0838215
0.0850468
0.0833862
0.081772
0.0832428
0.0830803
0.0818395
0.0740246
0.07438
0.0730999
0.0469677
0.0479198
0.049004
0.045749
0.069584
0.0723183
0.111321
0.0418916
0.047116
0.0457845
0.00131599
0.0730513
0.0708555
0.0720837
0.0732478
0.0716167
0.0798995
0.0808711
0.0795986
0.081075
0.0516785
0.0468968
0.0853228
0.084987
0.0844529
0.0858124
0.116676
0.117654
0.118121
0.11613
0.0722304
0.0743512
0.0715673
0.075122
0.095253
0.0947215
0.0956113
0.0728049
0.0743232
0.0748623
0.0721099
0.114109
0.114052
0.113048
0.0534704
0.0872354
0.0864614
0.0873974
0.0863723
0.0390206
0.0502043
0.0239906
0.0111942
0.0908831
0.00457112
0.0032612
0.00299168
0.0289768
0.059998
0.0182129
0.000679787
0.000946921
0.000642185
0.000300946
0.0495919
0.000387954
0.00044484
0.0103043
0.0101667
0.0777379
0.0141749
0.0127523
0.138822
0.0167623
0.128888
0.0185578
0.0302325
0.0302265
0.0182371
0.00056226
0.079797
0.0138556
0.00819431
0.00862552
0.00976686
0.123875
0.137061
0.0198895
0.0216534
0.0497448
0.0028054
0.0882263
0.137272
0.0906875
0.122583
0.119109
0.081909
0.00334159
0.0236088
0.000396239
0.00058346
0.00055539
0.0232693
0.0218303
0.00678667
0.0237177
0.00365936
0.00432366
0.0230095
0.000699072
0.0900942
0.0514757
0.138673
0.138551
0.000463522
0.0380953
0.036317
0.016327
0.00956899
0.0403328
0.0396159
0.0411125
0.0656358
0.0683953
0.00674011
0.0702556
0.137545
0.137201
0.0358698
0.000598748
0.00624914
0.00414037
0.0664197
0.0119843
0.030781
0.00048773
0.0349444
0.0236354
0.130202
0.00407284
0.0152558
0.0131992
0.138396
0.114119
0.00494436
0.080059
0.0376443
0.00770944
0.135209
0.045119
0.00229064
0.0350031
0.0339106
0.00889784
0.0202732
0.0210893
0.0229245
0.0185707
0.0262914
0.0417311
0.0430351
0.0363013
0.00172306
0.0197127
0.0610235
0.136174
0.0173358
0.11893
0.0277618
0.141416
0.000749859
0.0220503
0.0209871
0.0219978
0.0927776
0.0456116
0.0468944
0.00898547
0.00037341
0.00141597
0.00351313
0.0761019
0.0738766
0.0283609
0.0284058
0.00584502
0.00767465
0.00373836
0.0343776
0.0369732
0.156364
0.00231932
0.137232
0.137646
0.0534505
0.0237042
0.0349007
0.0828741
0.0811061
0.0343376
0.0329188
0.047695
0.0488016
0.00821708
0.00725479
0.0663789
0.0245792
0.031193
0.064136
0.0651317
0.0614687
0.0051872
0.0115603
0.0832887
0.0827555
0.0421066
0.0389337
0.026427
0.0347144
0.0363299
0.0723176
0.00382248
0.00390825
0.0454748
0.138587
0.00696355
0.00916218
0.00815747
0.00310181
0.00418617
0.00761161
0.0100093
0.0178195
0.00380703
0.00787923
0.0104967
0.00421426
0.00571767
0.0303452
0.0296711
0.0427458
0.0080707
0.0111785
0.0354109
0.000631982
0.00105456
0.0306072
0.00297917
0.0352748
0.0316204
0.024192
0.0231479
0.0108296
0.00855505
0.00996351
0.0129157
0.123409
0.0090705
0.0767447
0.0758106
0.0756274
0.0637826
0.0489817
0.00622137
0.018946
0.00980456
0.131276
0.0465685
0.00252335
0.0117868
0.011044
0.013497
0.00997777
0.00676935
0.140006
0.0341932
0.0364084
0.00744278
0.0058598
0.0978681
0.0961137
0.162662
0.158122
0.00735471
0.0306037
0.13879
0.040268
0.0405007
0.000691322
0.00776332
0.0233308
0.117568
0.120125
0.0157631
0.0868154
0.0094667
0.00821092
0.00934622
0.00437519
0.0740486
0.0763491
0.078166
0.00157037
0.0349442
0.141919
0.140468
0.114796
0.0792785
0.0314261
0.0657009
0.0586521
0.100033
0.139189
0.139065
0.0416763
0.137522
0.00171801
0.00216417
0.00908384
0.0251046
0.0188434
0.0406629
0.0407544
0.0392529
0.039316
0.00517779
0.00441839
0.00305653
0.162254
0.0844573
0.0115895
0.120928
0.129726
0.130274
0.0639365
0.0711603
0.0691041
0.166259
0.148185
0.00138098
0.00967105
0.0973484
0.0960402
0.00843075
0.00773758
0.0532868
0.0523734
0.0803152
0.0783993
0.0729654
0.0769642
0.0415641
0.0326542
0.0305764
0.0847346
0.0363483
0.0360339
0.0436347
0.0285878
0.0353563
0.0279215
0.0047305
0.0461137
0.00609945
0.149579
0.0105741
0.0118154
0.0389714
0.0525042
0.0433261
0.0385054
0.100791
0.0937452
0.109279
0.0393213
0.0781666
0.0217883
0.138137
0.0601463
0.0017185
0.0370741
0.00447295
0.00458711
0.137746
0.0303176
0.030197
0.0281632
0.137712
0.112301
0.118268
0.0406145
0.0672493
0.0684002
0.0772759
0.07809
0.0603791
0.0330373
0.0358802
0.0338011
0.0354251
0.0973543
0.0862753
0.136081
0.136608
0.0893238
0.0885901
0.0969201
0.00716383
0.00614726
0.103145
0.0164947
0.136748
0.0629491
0.0650124
0.0669284
0.080859
0.0778959
0.0799926
0.122273
0.147003
0.139267
0.104173
0.101921
0.102456
0.122521
0.00871915
0.0525985
0.0452861
0.0153199
0.0149927
0.0989579
0.0421697
0.0676842
0.0732505
0.0438751
0.170482
0.0229579
0.0383871
0.0254003
0.0284157
0.0103946
0.0254059
0.0262174
0.121777
0.124207
0.123157
0.0480036
0.049219
0.0116154
0.0913562
0.0274903
0.0223535
0.0326834
0.0293003
0.0288346
0.0498836
0.0705265
0.0633754
0.0664418
0.132982
0.12703
0.00234416
0.00308261
0.138706
0.0297185
0.0117231
0.0124187
0.119094
0.117592
0.138564
0.109957
0.138668
0.132999
0.132236
0.0201286
0.0433969
0.126171
0.12704
0.124962
0.125582
0.0692538
0.0666894
0.0958521
0.0980908
0.125751
0.12352
0.00319707
0.118925
0.117826
0.0585201
0.13892
0.138751
0.138696
0.105859
0.103166
0.137677
0.139696
0.138336
0.0754919
0.0461033
0.0490584
0.0488311
0.0747704
0.074758
0.0759078
0.159996
0.158788
0.0868184
0.054684
0.0570802
0.162436
0.160567
0.0492616
0.0497003
0.0523033
0.0311791
0.000439147
0.00369234
0.0724965
0.0216744
0.0251236
0.0266903
0.0746408
0.00109456
0.00197593
0.0936898
0.0943657
0.0310228
0.00797326
0.0137316
0.0159229
0.00554182
0.0421211
0.0432164
0.0469825
0.113292
0.115022
0.0329659
0.0140998
0.0151177
0.00614708
0.00698709
0.129523
0.127705
0.14499
0.152102
0.15626
0.109186
0.0760807
0.074701
0.0642356
0.068599
0.0675675
0.0824014
0.0903102
0.0736977
0.0712504
0.0349336
0.0371308
0.138686
0.138612
0.242675
0.227094
0.0542202
0.00796806
0.0570359
0.0105633
0.0207752
0.018197
0.018055
0.00714071
0.13399
0.040295
0.0463893
0.0591668
0.0563011
0.0592484
0.0604936
0.0634126
0.0620623
0.0619175
0.0457476
0.0287984
0.0188933
0.0403557
0.0154241
0.0504461
0.136665
0.0128465
0.0136685
0.151568
0.154094
0.0499314
0.0459433
0.0419537
0.00944618
0.0395878
0.0411121
0.086209
0.0596483
0.0578727
0.0783904
0.0240462
0.00065731
0.0630663
0.0647979
0.0165184
0.0129485
0.0154385
0.0811535
0.0819067
0.0809768
0.0549176
0.0873964
0.0871847
0.0994411
0.0973788
0.133703
0.0971848
0.0979544
0.0568536
0.0600783
0.0596036
0.051954
0.0738254
0.0111708
0.139917
0.139679
0.139888
0.135198
0.0728896
0.0206327
0.0222025
0.0288144
0.025586
0.05644
0.0434208
0.0471265
0.0512825
0.0556097
0.0537428
0.0397176
0.0984822
0.10415
0.108628
0.0290992
0.02892
0.042068
0.0423412
0.0468017
0.0715363
0.109341
0.0877106
0.128328
0.0375136
0.0053334
0.00598995
0.135355
0.0237176
0.0887041
0.00577624
0.0381677
0.0350991
0.0382449
0.0195681
0.0258271
0.0629101
0.025303
0.0220017
0.0201276
0.0943648
0.0325939
0.00127599
0.00242806
0.0911882
0.138277
0.102638
0.103208
0.0566361
0.111854
0.106882
0.01951
0.0202748
0.0445928
0.0422251
0.0439052
0.0768977
0.020879
0.0219034
0.140027
0.140514
0.0440849
0.0218792
0.0200395
0.060023
0.138806
0.0914
0.0894359
0.0650119
0.105519
0.0410816
0.00529395
0.00256825
0.00545563
0.0450148
0.0909554
0.00614903
0.183123
0.00239756
0.00491258
0.00756141
0.00429481
0.00361349
0.0037905
0.00264543
0.00645973
0.129044
0.0362008
0.0377064
0.0442454
0.0637402
0.102274
0.101331
0.139385
0.139509
0.139309
0.0698434
0.0946166
0.0930919
0.0671619
0.0651141
0.0627075
0.0560024
0.0561824
0.0655264
0.0636216
0.0300915
0.0326263
0.0357679
0.145572
0.150622
0.138184
0.137985
0.0473361
0.119973
0.116174
0.0359428
0.0390876
0.137597
0.137273
0.00837295
0.101954
0.101284
0.139084
0.138811
0.00902196
0.133921
0.0654856
0.0721649
0.0704299
0.0467563
0.0210072
0.00390329
0.031706
0.0940219
0.105959
0.106272
0.0351492
0.0403414
0.042078
0.00407438
0.0684377
0.0691094
0.0603442
0.12473
0.125221
0.126182
0.0382682
0.0696821
0.0742319
0.0750571
0.0732243
0.0506435
0.105559
0.107267
0.0487681
0.0652429
0.065826
0.0640744
0.0625033
0.0650944
0.00129963
0.112723
0.113803
0.115846
0.0319676
0.0295231
0.0804085
0.0794944
0.136737
0.136684
0.0445106
0.0492081
0.126713
0.12756
0.0682775
0.0689554
0.0676975
0.231482
0.187616
0.0793072
0.0775749
0.0213075
0.023956
0.121168
0.0807253
0.0828421
0.131444
0.13065
0.129833
0.0473934
0.0511877
0.138473
0.138187
0.0754989
0.0740554
0.0753196
0.0604955
0.0572484
0.108128
0.10774
0.106673
0.0282243
0.0335608
0.0888632
0.0896752
0.0229983
0.138084
0.13826
0.0684955
0.126863
0.122978
0.0305414
0.0621225
0.0653899
0.049238
0.0506045
0.0363175
0.138277
0.118263
0.102991
0.10958
0.115027
0.0370533
0.108615
0.138206
0.0211965
0.00262831
0.00527079
0.0766926
0.0771953
0.0149203
0.0688852
0.0501852
0.0466402
0.120576
0.141253
0.0561302
0.0595628
0.042044
0.0630715
0.067235
0.0134141
0.0724174
0.0715302
0.0636444
0.0114885
0.0114665
0.121727
0.0781488
0.078307
0.075379
0.0350796
0.0404082
0.0363635
0.0490491
0.0502303
0.0188949
0.0510828
0.0504725
0.0714792
0.0693013
0.0693946
0.00811008
0.00715662
0.0899243
0.0889034
0.0877746
0.0483595
0.0441966
0.052527
0.0464232
0.0482664
0.00348587
0.0354144
0.0963366
0.0963499
0.0959313
0.0955529
0.04475
0.111843
0.112995
0.115005
0.00976736
0.14864
0.160583
0.0330533
0.0300368
0.126158
0.124398
0.150402
0.155462
0.0828401
0.0803315
0.0798239
0.082891
0.0864648
0.0843384
0.114919
0.114472
0.116039