/*--------------------------------*- C++ -*----------------------------------*\
  =========                 |
  \\      /  F ield         | OpenFOAM: The Open Source CFD Toolbox
   \\    /   O peration     | Website:  https://openfoam.org
    \\  /    A nd           | Version:  6
     \\/     M anipulation  |
\*---------------------------------------------------------------------------*/
FoamFile
{
    version     2.0;
    format      ascii;
    class       volScalarField;
    location    "600";
    object      p;
}
// * * * * * * * * * * * * * * * * * * * * * * * * * * * * * * * * * * * * * //

dimensions      [0 2 -2 0 0 0 0];

internalField   nonuniform List<scalar> 
29884
(
2.79412
0.0884035
0.607409
-2.57538
-0.068575
2.55638
0.109914
-4.41859
-0.841377
1.14802
2.88957
0.737719
-1.18141
-2.37723
0.0267889
-1.93889
-0.323827
-2.20417
-4.44779
-2.96848
-3.47365
0.628014
0.363192
3.46829
-1.49043
1.22077
-0.762584
-1.35176
0.404633
0.381543
3.19625
2.7654
-0.776465
5.38002
1.91791
1.7834
0.82041
3.0668
1.84687
0.987621
0.727794
-1.62094
3.13734
5.14072
-3.55776
0.476813
-2.28652
2.12569
0.689932
2.53133
3.18681
-0.214427
1.20179
-0.863394
-2.93298
4.33115
-2.71237
-1.6823
-3.72877
-0.644985
-0.313381
-0.795018
-0.23037
1.09827
2.15581
-1.87758
1.32634
1.55826
0.705006
1.52072
-0.339216
-1.07278
7.96238
0.783221
0.495502
1.48332
-2.79074
-1.33348
-2.61175
0.842405
2.13983
-3.27974
-0.384321
2.15115
-0.20938
15.4315
0.75309
-0.633182
0.143691
19.2027
0.488108
-2.35729
15.2527
20.5452
2.78791
27.3275
1.26437
1.37848
0.121576
20.4669
1.64096
1.80029
0.140771
0.52901
0.336222
-1.88285
18.5483
19.0557
3.18232
1.56224
1.23758
27.3115
-0.0845453
-0.209317
-0.20088
1.99579
2.49065
-0.0453216
3.89124
3.36312
0.902724
2.48705
2.07102
2.79759
-0.367884
3.50344
1.16297
1.44492
-0.749139
3.07013
3.29644
2.95039
-4.34273
-2.32304
-0.211448
-0.653603
2.29132
0.320532
0.310359
0.585412
0.320039
3.13344
1.97081
-1.96713
-2.12664
-1.90323
-1.57249
2.543
2.03267
2.21816
2.74474
16.7795
18.1634
0.688259
0.592738
0.982903
0.533401
1.12826
0.816993
0.588045
0.912184
3.49154
3.67411
2.79173
25.5982
25.5078
-2.50315
-1.00832
1.11238
-5.92281
-2.7844
1.28593
1.30494
-0.34995
-0.217482
2.73411
3.03492
-2.8783
2.00695
1.72997
1.85698
5.39826
5.46712
4.80222
-0.106447
-0.0992295
1.30732
1.16913
1.2673
3.28783
0.517016
4.3462
4.93218
-0.258203
-0.342088
2.64635
2.69871
0.763532
-0.00831325
0.178471
0.359702
2.62426
2.53275
1.72742
2.59384
3.95606
0.114749
-0.297242
-0.39861
-0.78663
0.567872
-0.604834
-1.81061
-3.59414
-1.641
18.1203
3.147
20.1047
-0.109133
21.8131
22.0959
-11.7593
2.41802
0.298963
16.8691
22.193
19.1323
21.677
12.9877
-5.162
4.64307
19.7607
17.8864
-7.62468
-8.03124
18.0968
18.3472
2.84776
-3.83571
-3.10049
-4.10484
27.1645
18.6415
-6.57558
-4.81418
3.2159
18.2872
20.071
-9.12495
-10.2781
-6.18684
1.67035
2.95648
2.8262
22.6648
22.3616
21.347
21.7178
-11.0908
-10.2284
-0.0124946
3.52316
-6.55492
24.9768
3.12996
20.2467
-10.0488
2.50244
2.08089
20.3687
2.0849
2.19341
21.1781
19.8617
20.11
17.848
18.5729
21.3948
21.116
-4.91203
-0.958395
18.0225
1.55919
2.28353
3.87499
3.19397
2.83472
-10.0578
25.7071
1.92398
22.3089
17.971
18.0726
-5.6741
-10.3492
-10.4704
3.54838
17.9097
18.0158
-6.17511
-5.05875
18.8253
18.6903
18.8298
21.3962
17.6945
16.6858
6.69887
2.99846
3.26357
3.24333
3.59007
20.9586
-5.03377
-5.60059
-10.31
-6.80393
18.5846
-11.2428
-10.325
-10.9819
20.4219
20.9782
21.1846
-11.2502
2.24425
20.234
20.7914
20.8536
21.2152
2.48603
2.01443
1.98832
2.00455
18.7746
18.8298
2.3069
-4.26586
22.2099
22.1493
-8.17481
-3.29526
22.0133
8.21453
0.317743
22.4128
22.0018
22.1629
22.1919
19.7609
19.4443
20.3621
2.09736
2.19188
1.91391
20.8117
21.377
21.5104
21.4993
21.4278
20.2754
19.3097
6.29675
0.590041
2.75769
2.58152
2.66248
2.5952
25.0544
22.9787
-7.33987
-6.34289
0.478135
0.611363
0.424957
3.56727
3.05595
-8.36562
-10.584
-11.1985
-11.3019
11.9577
4.05731
4.0055
3.57737
-6.01669
-6.79169
-6.50928
-5.76945
16.6513
17.8023
18.826
17.3167
-7.23861
-7.80413
-7.26624
18.6055
18.9709
-4.6414
-4.35514
17.9827
19.1267
16.5043
17.7984
16.9251
16.6249
20.3052
3.1068
3.32293
2.08969
2.37135
18.8126
18.35
22.2655
22.44
22.6363
19.8362
0.518987
18.9083
18.2236
19.1243
-2.99443
20.8599
20.7127
21.5739
19.8852
19.3398
19.0859
18.6489
20.8971
20.506
20.6452
20.0952
-4.05774
18.493
19.422
19.3886
19.671
-5.37998
-5.92329
19.6403
19.1613
18.5555
18.8134
3.93389
3.54618
4.16051
-7.5832
-6.47331
-8.2124
-7.44042
-0.213227
-1.4831
14.6976
14.5045
1.05944
1.13491
1.10482
1.12833
-1.29933
25.2222
6.76247
6.016
1.44771
-7.08927
-6.72727
-7.29928
-6.58151
16.5551
15.6268
15.944
14.848
1.63047
1.49423
1.63778
0.98211
1.02609
1.09468
0.660944
0.882616
0.809732
3.72074
3.49926
3.58449
3.99014
-5.97558
-5.34527
-6.11476
-6.40576
3.45168
3.15959
3.27623
22.2047
22.4078
22.249
21.7176
4.27344
5.06857
4.50324
27.1042
25.2611
1.4408
24.9185
11.0584
0.896957
0.86967
27.3826
27.2006
0.911177
0.937795
0.942794
1.40354
-8.86847
0.972437
-0.525489
27.4331
27.4631
2.41885
19.9653
-9.361e-05
1.05085
-4.20077
-5.94581
-1.78861
-2.00325
25.6849
-3.64719
-4.13442
-0.226177
2.0606
-6.33184
0.0063087
0.11722
0.122534
0.256804
-1.86356
3.08992
3.12183
-2.79289
-2.68155
-2.85728
-0.15097
-0.465799
1.2793
1.32234
1.12802
1.07407
4.70547
25.4091
2.19454
2.13841
-0.0299106
1.20151
-0.436331
1.00265
1.07926
1.11343
25.1856
1.47301
1.41212
-9.10638
-10.0133
-8.90397
-2.42386
-6.47917
-4.95058
-0.424811
-0.365173
-0.396276
14.878
14.066
-3.08154
-2.70646
-2.32831
-1.73415
7.41313
-4.69922
-0.959555
-0.790873
-2.43784
-2.74212
25.0777
0.198497
-1.17425
14.714
-0.115021
0.209526
25.6753
18.9597
19.5879
2.26081
1.15183
1.2228
-7.71283
2.61531
6.48978
7.27005
22.4296
22.2489
4.0493
4.56208
4.36518
1.08441
1.03139
25.7312
1.33984
3.62431
3.85314
1.94485
1.74899
1.60359
2.45092
5.78157
5.15149
6.33751
5.68067
2.87526
0.529976
1.67665
-0.757479
1.7451
0.320559
0.715004
0.856113
-5.73317
-6.82144
-1.49109
-0.098541
-0.475965
-0.976908
9.5362
10.7963
19.6776
20.079
20.4665
21.6244
0.881739
3.1234
2.9121
0.684951
1.32772
17.6442
16.9576
-3.69617
-3.96429
-3.22148
2.08032
0.984959
3.21639
3.56311
6.95585
3.78572
4.43787
-10.5937
-11.0968
1.17854
1.34807
1.15307
1.3825
-2.63787
13.0276
12.2814
11.4551
1.68194
1.78299
1.89956
1.86159
2.00518
1.0294
2.9167
3.08323
-3.49904
-3.34119
-2.96219
-2.10119
-2.35029
-2.63701
-1.35487
0.555302
-1.96519
13.2066
12.2728
11.1124
25.6825
25.557
5.0546
5.5269
19.9943
20.2292
-0.597072
-1.0916
-0.333432
20.5427
20.9642
7.9481
7.23713
22.9458
17.3627
-5.38895
7.06671
4.18097
5.62956
23.3877
4.54471
-19.6485
-5.4875
-14.4541
-0.501804
22.9156
-5.60518
-13.2731
20.641
-18.3576
-4.84569
-5.08601
4.55991
4.57528
4.20509
0.878812
0.253356
6.78753
-2.84159
-3.12337
-9.57132
5.59029
5.16189
-2.55479
-1.94677
-1.52674
0.509762
0.665529
0.290866
19.5132
4.06654
4.9342
-2.44069
24.41
18.2113
17.8083
23.5379
-17.3677
4.73241
-11.4154
-12.7227
23.7923
1.68591
0.591725
3.17642
23.1184
-13.0462
-12.6067
4.94763
-2.02363
-1.30813
-2.00885
-0.327769
-2.8852
3.2122
12.9983
-8.71058
4.04893
20.0158
19.9786
1.63611
1.49488
-11.267
-0.885062
21.4279
-4.91092
-9.93904
-0.204893
0.765915
4.3204
-33.517
-2.20539
0.0865765
3.51864
17.7246
17.801
6.08244
-3.65449
-3.99067
-4.65575
-31.9255
1.62326
-7.43713
-7.26179
22.65
2.22513
1.81334
22.9646
22.7947
-9.2106
-9.43141
1.40467
-12.8798
19.5676
0.716415
0.0982614
2.45748
-4.98935
14.9929
1.22814
0.893759
-7.94447
-2.61482
-1.86005
-8.78582
25.2678
16.4445
-8.54792
5.96851
5.5639
17.4532
17.7969
-3.0994
-2.77244
-13.904
-24.603
-3.75063
-7.20416
-7.05646
20.9719
-1.31581
-11.9582
26.3032
-17.9138
2.62318
-5.12014
-5.25677
3.32236
3.26341
-0.0518321
15.587
4.43654
-21.2953
-13.5266
-13.7207
3.46301
-11.1376
-2.63817
0.493952
-14.8116
-15.0669
6.38656
17.3148
24.1311
-2.11708
2.40029
2.97788
16.8607
16.6851
-0.565573
7.33385
-0.512588
-0.399327
-3.69446
3.91276
1.78269
1.58958
7.87833
8.94629
19.3123
22.6889
22.8978
22.8763
-1.26256
-0.652055
-8.15786
17.8409
18.0169
12.8329
1.83415
16.0404
23.189
14.3614
13.7465
-4.77873
2.25392
-1.2716
15.5256
15.4335
-2.46668
2.02016
-12.9814
4.73069
-13.419
5.36767
5.14755
20.6554
2.02385
-17.62
1.89569
-12.5768
0.454215
1.53563
16.7525
15.4973
15.3843
4.56647
4.38941
2.87273
-9.99528
-10.1095
16.627
2.95786
2.68092
2.2872
1.19199
0.85124
3.10885
-6.28382
-6.9902
-20.7671
-2.40502
-1.73303
-1.98493
7.68157
7.44107
5.72723
6.0269
-1.91127
-2.22755
-10.3922
4.43744
-1.03412
-1.29319
-12.6332
6.84738
-22.2348
15.4302
-12.7885
-12.4702
-20.0572
4.3489
-13.0548
2.38525
2.72201
-9.76962
-7.8834
1.61238
16.1051
-17.811
5.13552
5.52189
-13.1881
14.3669
-7.56692
24.6209
2.93713
3.42105
4.34014
3.16396
3.51623
1.41235
1.59136
2.66729
3.85869
-13.3509
-12.3069
6.18547
3.15107
2.44756
1.17587
-0.342034
-0.672837
2.48158
-5.71907
-6.58721
4.8583
4.6495
-2.14965
-9.47969
-9.7854
3.17312
3.40422
24.3848
-6.94354
-6.33416
-1.21787
22.1246
-0.961683
-0.704286
-5.3163
-4.85341
1.78046
2.34824
3.10565
17.7507
18.5878
-12.3595
-2.64368
2.85656
-12.4038
-12.2087
-12.5163
20.2101
19.8524
-12.2948
2.92119
-14.512
-14.829
6.41014
5.95561
-13.1587
-12.9857
-13.1818
16.119
16.4663
-4.39687
-13.2264
-1.97846
5.36893
-8.37083
-8.63172
18.8877
-8.46404
-5.08349
-6.69324
5.34451
23.3707
-0.0825697
-0.681486
2.78264
2.15688
-16.7262
-8.60837
-7.97501
-7.1655
-6.43217
2.89293
2.88456
2.73559
-13.8059
-13.01
18.4076
-3.92661
-3.86312
2.52872
-8.9559
-8.54887
-2.75312
-2.26983
2.72601
16.4081
16.1995
-13.6086
-12.9196
4.34436
4.63162
4.57811
5.22231
5.68294
16.217
6.41847
25.718
-9.69966
-10.141
-9.62901
-9.51275
-7.29175
-8.93687
-13.2573
-13.2468
-0.099564
0.0198676
-0.296652
0.89934
-0.724914
-3.40719
-3.7172
23.0274
18.9368
-8.52622
1.95676
1.72511
1.45173
13.8679
1.35406
2.24022
2.41619
1.6551
2.12724
2.20907
2.75865
3.40103
17.799
17.2697
17.306
17.6399
-1.40575
-1.95594
18.767
3.30877
3.27189
3.41376
0.402988
2.96586
18.2501
-4.82537
-4.10481
17.8857
18.4552
18.3671
0.610102
-0.964341
-1.01967
0.669241
1.65028
1.98125
-0.798742
3.3425
16.666
16.7742
16.4011
-4.84836
-5.31955
-4.8328
1.74366
16.9995
4.97053
4.10062
-0.786522
22.5786
7.3015
7.10956
7.19645
-6.79913
19.2455
-13.1845
17.2784
17.4531
24.1599
25.6057
2.47469
-2.13834
2.92528
-3.12315
-2.77219
1.06927
15.0938
1.41908
4.85014
-15.4791
0.960734
1.25492
1.4221
17.7578
2.64329
2.71171
2.69802
4.26662
4.95226
23.8111
16.9592
17.2122
-0.896356
-0.589987
-0.333672
24.1641
22.4676
3.49476
18.564
19.042
18.354
17.5489
17.1958
17.5275
2.71364
18.7632
18.9429
-13.5817
24.1438
4.17125
4.5572
1.10881
1.0795
4.98058
-0.11802
1.2389
0.910102
2.70542
2.65937
-10.6259
2.07947
2.25184
2.3404
1.14852
1.59645
7.72757
3.03786
6.41239
-1.35375
21.3833
22.7883
0.348065
24.3584
-8.22132
4.10921
15.8809
-4.60964
17.2449
17.6301
13.9241
14.0018
2.29192
1.69876
-0.921429
-0.792689
-1.01084
0.687427
0.984152
0.769043
6.4515
6.29398
21.3421
21.9166
24.5963
-0.453224
-6.61622
2.95282
3.16186
3.12253
3.57212
4.08716
15.6944
15.6067
1.51394
1.4637
-0.203832
1.02668
0.877339
0.571623
18.1206
0.434529
2.6797
2.81061
2.95542
2.49838
-14.5709
-14.9723
-14.4259
24.6419
17.6188
16.932
17.7841
18.3814
6.04217
6.07728
20.9796
2.50312
2.6237
6.03547
-10.9816
-10.9284
-9.78821
17.3008
17.3202
17.033
-10.8427
-11.0744
0.495492
-13.2486
20.0809
20.1043
12.9847
12.9165
2.86254
3.03894
2.82249
2.72349
5.20323
5.05212
13.9353
-11.2676
-11.95
-12.419
3.67124
3.34902
25.6223
18.6099
18.3548
-4.17332
-4.37106
24.9606
24.8788
25.4398
22.9604
22.9907
-2.77971
-3.20018
-15.544
-14.0099
-17.5039
-12.9612
22.697
-8.61688
-9.01772
-9.09185
-11.2465
-11.0628
-10.746
-9.7801
25.0837
25.195
25.6491
25.4436
24.8184
24.2523
18.3733
18.1377
22.5943
-5.43443
23.7609
2.5316
2.36944
2.50412
3.42951
3.38203
3.15076
1.08744
1.32574
1.53771
2.14781
5.62866
-10.9291
-10.9577
-10.3235
16.4207
15.7257
16.3431
1.21263
1.07517
0.742048
2.62465
2.67296
2.83925
7.64695
3.77852
3.99653
4.32212
-0.0172962
0.320543
-13.4577
4.04786
3.33114
3.43326
25.1376
24.9495
3.0878
3.10461
3.12173
3.41086
-8.26812
2.69104
2.47464
1.77706
2.34711
2.68424
2.77336
2.62908
-0.639885
-0.606445
-0.704756
-2.49731
-6.87658
-13.212
-13.0621
-13.126
-13.1042
18.5302
17.7608
1.27163
2.01471
4.55643
3.82745
-15.512
8.16262
-8.14431
-9.01319
-6.00116
25.4029
-12.8766
-13.2803
4.50955
5.28038
3.70187
1.67856
1.81218
25.471
-4.71012
-4.74295
-3.96898
-9.29946
-9.79739
-9.52774
-11.7682
-11.929
-11.8529
-4.23893
-4.58118
17.5936
17.2222
1.454
1.34105
1.92752
25.3443
20.6121
26.7287
13.1237
-12.6061
-12.6904
-11.6032
-12.4586
-14.6695
17.6125
17.2227
16.9599
-8.14304
-7.35796
-7.89747
-7.22198
-12.673
-12.36
-12.7664
-12.8948
22.6386
22.9645
22.5424
22.5259
-9.66542
-8.70909
-9.4351
-8.74772
15.3866
-5.83115
2.98906
2.80882
2.65329
2.89432
-0.99351
-0.437891
-0.682017
-8.0991
-11.7489
-11.1583
-11.8095
1.28761
1.64079
2.11161
2.80209
2.84535
2.62934
1.63578
1.27234
17.5605
18.1524
17.4665
16.812
2.61329
2.42215
2.37193
2.36887
-10.5473
-11.0343
-11.2517
-2.20899
-2.98
3.61117
4.08496
3.53326
-13.8914
-14.4818
-0.187937
-0.0405659
1.40062
1.9218
0.840731
1.45448
1.48798
0.995313
1.42929
-6.72922
-6.97429
-7.38348
-7.83992
-7.25899
-7.07609
15.041
15.3472
0.343214
17.2395
17.1637
19.8979
1.70389
1.93422
2.1718
1.9685
19.4885
-2.08894
-1.46812
-1.39728
-0.47474
2.74395
2.39737
15.8469
16.1186
15.6626
16.0125
-1.91771
-1.39916
-2.19461
-7.54529
-8.08249
-8.24799
17.3949
16.9532
18.1399
17.945
-8.00451
5.24236
14.9683
-5.56661
-5.86881
-4.31438
-5.24591
-24.0289
6.11365
-23.7738
-23.5067
3.80938
4.05075
3.64508
3.72157
-1.08968
17.0273
17.4551
3.7331
3.69377
3.85995
-0.0720664
-0.37533
-13.2416
-13.2215
-13.2131
-10.0292
-9.71526
-9.85234
-9.26278
19.8417
5.75009
5.89864
-5.31275
-5.74486
16.3479
16.6878
16.456
21.1431
-2.87946
4.92949
0.376595
0.163674
0.35952
1.40011
-6.9766
-7.20479
-6.50119
1.60164
1.64527
1.33345
17.8278
17.9729
2.91837
2.52691
-8.66648
-8.27305
-9.08733
5.48651
5.24936
4.96263
-7.18471
-7.4813
-7.05486
-7.69494
-8.04742
18.1349
17.6343
17.922
-3.11432
14.7543
14.4602
-0.746594
-0.825196
0.412763
2.42192
1.72985
-13.4414
-13.4563
3.99796
3.80756
19.0419
18.3955
4.3191
4.08904
3.18703
2.84517
2.33058
2.36929
1.87329
1.91714
2.22858
2.20683
18.0512
17.8437
1.28548
0.824311
0.127454
0.583609
0.192381
17.9147
17.7552
17.618
22.693
22.802
22.4459
22.8048
18.9142
17.4804
17.518
17.3174
0.957801
0.51197
19.2833
19.5747
3.58358
3.87683
4.16146
4.35555
4.17755
-13.4159
-13.4521
-13.1651
-13.0439
20.704
3.06753
3.00332
19.6252
19.2873
18.8505
19.3785
0.831097
0.806374
0.482632
-5.76995
-6.07934
-5.562
2.43039
2.9043
2.02619
18.3406
18.5457
17.5997
17.7589
-2.58058
-2.35401
-2.09431
13.7208
-14.1582
-13.8322
-13.3191
1.28273
-5.22796
-6.11099
-5.59252
-5.87369
-0.586231
-0.925565
-0.0249869
-0.404748
3.49142
-11.939
-11.8532
-11.2668
-11.7131
2.89353
2.81194
2.63604
2.60914
2.48356
2.41323
2.58011
2.4563
2.25246
23.3132
17.3426
17.3597
-13.3351
-13.3629
27.2765
-6.24503
1.38437
0.921427
-0.0803827
0.0349342
0.0664971
-0.577047
0.0102231
-12.7277
-12.2276
-22.8473
-22.1474
15.0412
15.5531
15.8162
16.0397
4.94955
3.32703
3.13156
3.3348
-25.1099
16.2804
16.3599
15.4675
15.724
-6.85223
-6.70367
-5.98717
-5.54374
1.85804
1.88568
1.77795
4.92039
-10.1839
-9.88861
-10.4253
-10.4353
-10.4813
-9.99084
-13.0727
4.5134
4.31966
5.32376
18.5044
17.9309
17.8809
17.8576
8.43131
8.58229
-2.21777
-1.15563
-0.384313
-0.5602
19.3068
18.3053
18.0652
-6.61506
-11.9097
-13.1574
19.1585
18.9469
5.07477
5.19899
5.25325
2.74192
2.70252
2.82674
-8.97808
-8.93902
-8.81479
15.4191
14.9955
15.1563
15.7614
22.6854
17.986
18.4615
17.817
18.1373
-4.69092
-7.50445
-5.63592
-6.14912
-0.44675
-0.613476
0.719789
0.913576
3.27834
2.99314
2.93134
2.8019
3.11483
-0.0403748
1.31703
0.670741
19.9108
3.64477
3.59935
3.64919
-0.169738
0.44229
-10.3019
-10.39
-10.2593
-11.9726
-11.2376
-11.9101
6.06191
23.2119
4.96485
21.9253
22.0077
2.96287
2.52439
3.01738
-5.52734
-5.36191
-5.82212
1.11818
-12.5206
-12.9796
-12.8767
18.8605
19.2442
2.2995
2.02986
1.84341
2.07792
4.24291
4.32981
21.943
21.9907
2.2388
2.03664
2.45978
2.37472
2.48129
2.79709
18.518
4.44516
4.52555
4.40198
0.0510004
0.401296
0.0297278
-21.0693
-8.46568
-9.14883
-9.57837
-8.94749
18.2634
17.6709
17.6086
18.0063
-3.74091
-4.62916
-4.26417
-12.2251
-13.516
-16.7709
-13.5868
-17.6784
1.2549
1.10032
-1.27166
-0.98086
-4.61129
-5.23702
-4.31074
-3.60469
3.92081
3.82858
3.03644
3.40771
19.7547
14.5817
14.1755
14.7035
-7.1373
-6.56507
-6.94563
-7.20672
-10.3253
-9.02465
-10.9775
-10.7869
-10.0095
-5.75805
-5.21892
-5.43433
-4.46631
14.882
14.9043
0.38329
0.315443
-10.5761
-11.0923
-11.0882
-11.0782
1.65041
-6.35646
-5.91005
-6.33884
-5.985
2.29005
2.50922
2.45342
22.928
18.0466
-8.59764
-8.00331
-7.86639
-7.36819
2.31342
2.5295
-12.11
-12.1337
4.14235
19.287
2.58502
2.43477
1.54215
-4.97925
5.61742
5.63103
5.51853
-5.68881
-6.44596
18.9774
-10.9067
-12.1104
-11.4368
-14.1846
1.16099
1.45206
1.18725
21.7136
21.67
25.7097
-2.43744
19.1243
2.58873
2.7162
2.11644
2.48118
0.377627
0.725277
1.63614
1.56988
2.66443
2.7121
2.88301
2.79995
-7.81479
-7.09448
-6.51865
-7.22455
2.46878
2.55152
3.97585
3.00879
-5.39439
-4.90027
-5.77475
-9.88647
23.3708
-4.97056
-12.6219
-12.0391
0.942155
0.901967
20.6656
-11.3883
2.86237
3.1258
2.89701
19.7903
0.836827
0.503068
0.97113
1.55961
3.68539
1.54062
1.26575
2.28726
2.59203
21.8574
21.9871
21.3062
21.5921
2.6362
2.73047
2.76279
2.42126
0.687
0.409557
0.199355
0.505921
4.26375
4.66197
4.79813
4.58729
18.7411
18.6683
17.9108
18.2731
17.7165
18.033
-9.47169
-8.57236
-9.81341
-10.1704
0.0200615
-0.06053
-0.399415
6.38602
-13.4426
-13.5534
-13.1877
-12.4158
-12.2213
-11.1261
-12.7235
-13.3934
-13.7635
-14.1465
-11.6242
2.56204
2.04328
25.7227
17.9047
17.4703
17.4509
17.0997
-15.2917
-14.3649
-13.9605
0.61728
-4.6089
-4.77495
-4.59719
-12.7214
-12.9513
2.19042
-12.3914
-12.2263
-1.26757
-1.66212
-2.14453
-10.3816
-9.25221
-8.99209
-9.93875
-13.4889
-13.4867
-13.2686
7.63051
6.64731
-5.84022
-5.14978
-5.47774
25.7357
-9.22296
-8.76142
1.06706
1.12573
1.08584
2.0898
1.94736
2.17749
-9.75578
-8.64236
21.2134
21.4164
0.661231
1.18308
17.5856
17.8708
17.6778
18.0423
-6.13013
-12.2145
-12.153
5.20639
5.3633
4.65768
5.2209
1.61079
1.63102
1.92538
1.68176
1.45686
1.5258
1.81929
1.62855
0.580231
0.670903
0.500022
-9.35624
-9.15768
-8.19519
-8.66246
-11.6489
-11.8826
13.03
-9.00376
-8.94081
-8.96809
5.26629
18.7991
19.2067
19.0418
0.238213
0.0530879
1.15749
1.25788
1.21867
1.56197
-11.4529
-10.6979
2.39665
2.54254
2.19637
2.38838
1.55032
2.03027
2.09304
2.41219
18.0798
18.0637
18.7078
18.5441
-13.2661
-13.1823
-13.2372
19.3738
19.1034
18.4693
18.8366
5.09994
5.13244
4.89465
18.8827
2.61573
2.31749
2.39274
2.35637
-15.9383
-16.7493
-20.7703
24.7909
-3.64898
24.9912
25.1702
25.2301
23.2329
-14.9994
25.2662
26.0465
26.1265
25.4574
25.7679
22.0323
25.5492
25.5774
24.7936
24.8318
-13.1815
24.1359
24.0822
0.518829
24.1432
-6.31125
23.5907
23.4086
23.4166
-7.29132
26.3221
1.78852
24.6072
26.0493
25.9601
21.6087
-1.328
-0.0121475
22.9933
22.7832
-15.8296
24.9762
0.91104
2.12648
-1.23912
5.8483
6.83776
-6.98939
25.4417
24.7382
25.6891
25.6348
25.5886
-11.8531
-12.3098
25.2141
-11.7587
26.5307
26.3896
22.8114
26.8063
-4.15975
-16.5234
0.478108
0.60113
25.7828
-18.7518
-19.1804
23.7238
-22.1406
21.9701
22.066
22.0104
2.5159
2.42478
25.204
-0.6358
1.38109
1.59126
-19.3227
25.0789
25.1664
25.384
4.14694
24.0465
24.0138
25.4518
23.2137
23.0137
2.74594
26.3419
19.4131
19.4475
0.634425
6.74313
24.8237
17.8047
23.167
25.0216
2.25357
21.173
25.2066
23.2557
23.3039
25.0843
24.3569
24.2979
23.6811
24.0529
23.9923
22.684
22.5013
23.2814
20.4324
23.897
20.404
0.845833
24.3189
11.449
22.3096
-1.33526
26.9621
23.5629
23.715
23.7749
6.05775
22.3174
22.1575
-26.4318
25.5572
25.5729
26.4027
-0.664757
-0.694217
-20.2159
23.8318
-23.5203
-22.8026
26.9547
18.7088
18.9128
-1.42696
20.1258
0.18767
0.126871
18.3795
24.5426
23.2656
-0.621531
-1.11302
23.3572
22.378
3.54898
21.9904
24.8812
24.7602
19.7373
24.5511
22.9399
-11.4451
-11.7679
-11.3015
25.2705
25.6515
-13.2195
-13.3319
3.84317
3.58686
-10.8755
-8.28605
-7.87962
0.68032
24.6941
24.3639
-4.57463
1.39305
25.6511
25.4484
25.8402
25.0455
24.972
25.4038
25.1291
24.0088
25.0748
25.1639
24.883
24.3775
24.3043
23.6963
23.6871
4.46923
24.7702
24.371
23.4009
27.6583
27.1663
21.8721
25.4571
20.3052
20.6332
23.3666
23.294
25.8361
24.4416
23.7262
23.4875
1.76874
24.3369
1.08169
0.948931
0.935355
-13.3897
-2.64324
24.1084
-13.509
26.0784
2.29945
20.3727
25.3466
22.7827
22.6295
22.6957
24.7265
23.8642
1.04367
10.499
9.64211
24.4896
24.8131
-0.472753
2.16431
-3.6475
-3.38523
23.5886
24.0345
0.330798
20.0018
20.4428
27.3809
23.2587
-22.1425
7.98198
7.32549
25.0216
-3.65168
22.6812
22.4662
22.5034
25.3725
-7.36981
-8.41935
-8.23354
16.3329
23.367
-0.718637
-1.06504
3.68569
0.248779
-20.1036
19.9477
20.497
2.09889
0.760364
0.598283
21.6159
1.79013
25.5471
25.4936
24.8548
22.989
-23.235
22.8833
22.9128
22.9784
23.0526
24.596
26.8768
26.9858
-2.23334
-6.09001
21.7243
8.77424
3.36568
3.37803
20.0202
0.522333
0.373601
-3.3211
-3.75212
25.2483
-21.7931
-0.35747
-0.812065
25.3731
25.5274
21.6467
21.5076
1.34465
1.12719
-0.348769
-0.652956
22.748
-8.85187
-8.48457
1.18339
23.1472
23.0999
7.50645
23.7194
23.3018
24.2765
24.4107
21.1165
25.6813
-2.14634
22.1835
21.9754
-16.6925
4.4588
21.1788
-16.6828
7.92002
8.62535
7.80171
-16.7946
1.80566
4.64297
-4.88302
20.7068
25.1938
23.2044
25.659
25.4799
-2.12195
23.1731
23.2052
21.9447
-5.12935
-7.67773
-6.29619
21.7046
19.8278
19.6777
0.792931
1.01726
-13.6268
21.7224
21.6511
22.0173
21.4575
-1.08303
-1.63208
3.52297
3.19948
-1.39181
-1.14061
1.96145
25.0348
25.0918
3.00042
24.2905
-6.66008
-0.263383
-0.113304
0.147123
-12.5243
-12.0817
-12.359
0.131542
-4.21196
-4.79447
2.83717
2.0217
2.08873
0.331308
2.36116
-4.11574
-3.77296
24.3235
24.2946
0.132187
22.7432
-11.8137
-12.1233
-10.6064
-2.37086
24.5142
18.832
24.2015
9.71634
24.8373
22.0508
21.9207
1.00976
1.01981
1.18863
22.1941
22.0752
24.707
1.71926
23.8173
9.91479
20.6883
20.6624
20.195
0.611356
-0.194999
-9.7856
-10.0658
-4.65761
-5.2008
26.6512
26.5837
1.44803
23.3883
25.7842
24.5958
-0.329524
-0.810588
0.784254
-5.38404
0.690922
1.71299
1.57891
24.3757
21.7016
2.69144
2.58668
2.01697
2.41451
-5.21235
-4.179
3.80025
3.77759
8.14766
8.95294
25.4399
0.785699
0.395347
-2.67824
0.248957
0.312263
0.315666
-0.867164
-0.530578
0.722976
0.636033
0.40426
-1.01356
21.2939
21.0897
20.1817
-7.78795
-7.47775
-8.24311
-1.12149
-1.23287
-6.57412
-10.7034
-11.1006
-2.07492
-1.64956
-2.70073
-2.83529
19.9392
19.7947
27.6413
26.8655
3.88621
-6.2678
-6.52843
-6.47955
0.661706
26.9958
26.8504
-1.88879
-1.42742
23.8456
24.3196
25.0655
24.8951
24.9863
19.3813
19.5538
19.1667
0.963332
0.870743
23.5448
24.6904
24.6492
24.8959
24.8697
7.56958
8.85147
-8.48279
-7.43589
-11.0885
1.55573
-9.51629
-8.92218
-4.99938
-5.43873
-5.65863
-6.39736
-6.25481
-5.75524
-6.06398
23.3336
23.1806
0.614292
0.700737
-0.823107
-6.14755
21.0107
24.6074
21.0089
24.6113
24.6046
24.8595
24.781
25.0673
-6.32613
-2.61778
-3.21277
-3.86837
-3.71255
-1.60364
-1.44976
-12.8017
-13.1829
20.4074
6.70514
24.1591
24.0115
7.17514
22.9927
-9.01
0.0170906
23.9883
23.7953
-0.741017
-0.731133
20.9453
-7.256
-7.14003
25.0284
-7.04825
-6.4526
-3.89113
19.0222
19.0691
-0.242157
22.6627
27.5169
19.0331
19.0244
20.1752
20.0852
19.8515
1.60792
1.72839
1.59595
-4.14994
-1.207
-1.09271
2.55721
2.25635
2.73981
2.75019
2.87812
19.9784
19.6168
19.6779
-2.56747
0.38012
24.3639
0.95657
0.962466
0.99965
1.78963
-11.4481
18.7598
19.3713
19.0425
19.6861
-2.48868
18.8384
18.6681
21.4523
21.0721
19.2334
4.68967
15.7499
15.2523
14.772
23.4635
23.3587
-2.34738
-2.59009
-1.83478
-0.0328354
3.41985
-5.71215
2.27596
23.2451
25.2367
25.1819
1.9752
22.6433
1.13475
-19.0345
19.6598
19.5989
19.3579
20.1031
20.2523
4.81557
-5.99512
-5.7806
-5.85606
-0.419179
23.2441
27.4013
26.9237
1.26994
0.774944
3.42059
3.5769
18.6111
-0.766232
-1.46548
24.0756
24.0774
22.5019
22.593
22.3716
-0.810684
23.9472
23.9326
0.945132
0.197093
18.616
22.4022
22.3524
20.8777
1.02116
2.99878
2.68012
20.0991
3.58717
19.3017
25.8116
20.4056
20.6576
22.4296
-0.740112
25.5802
-3.56565
25.104
21.6861
21.7782
25.3504
25.3855
25.3961
25.0435
25.4759
1.86829
22.946
23.0755
-11.1142
19.7183
1.89076
1.15456
1.19219
1.09549
1.24007
-0.258647
2.58675
2.51166
0.49491
0.122512
-0.109881
20.7915
20.6584
-0.874162
-1.10264
-6.49683
-6.81869
-6.95032
-1.977
-1.85251
1.61302
1.67206
-3.11581
9.71539
10.6747
18.4802
18.3835
2.00925
2.21992
-5.60238
1.34353
0.907354
0.860874
0.836681
22.1311
5.42988
17.9788
17.5213
-1.59527
20.724
-13.3604
24.9968
0.241229
-0.833434
3.00599
3.20248
-4.92513
-5.05147
-4.77521
26.9421
15.4271
16.1432
16.726
1.79428
1.559
1.39536
23.1188
19.189
18.6219
18.5602
18.492
2.93861
2.7123
2.66675
-4.94208
19.7025
19.7201
19.8444
18.5221
18.3466
25.3669
1.37075
1.6996
1.42476
-9.14646
-9.00854
-10.2055
-9.3766
2.86121
3.02738
18.9058
18.4294
3.1631
3.23473
19.1584
18.8129
18.9278
-3.50676
-3.14278
1.6552
1.54134
20.6063
20.6539
0.261477
-10.3793
-10.8961
1.96792
1.75721
2.13289
-9.35249
-9.79961
0.80895
0.759723
18.5825
18.8765
18.4802
-8.79215
-8.70397
0.117149
0.331444
-0.0802766
-3.45704
-3.34586
-12.2516
-12.5479
24.6533
1.73769
1.60265
-13.6542
4.75394
5.09283
22.2367
21.019
20.5691
19.8051
19.9341
23.1542
1.58063
0.34834
0.0320856
0.6546
0.840728
23.1471
3.90683
-0.102173
-13.7183
12.4024
12.9995
-8.41195
-8.16347
24.6757
-0.467346
5.36961
5.37828
4.16158
-10.7162
17.8087
17.1003
-11.0619
20.4251
20.0811
22.0314
18.2173
18.5642
-0.728573
-5.7692
-5.90069
3.47357
17.7199
17.7975
17.8809
19.6168
20.106
20.2575
21.7489
21.848
-3.14961
22.111
22.0067
17.442
18.2268
18.269
24.8371
24.8913
2.46443
2.39048
2.33386
0.904712
0.375063
21.281
21.744
21.4377
25.3459
-8.33322
2.65901
2.63941
2.95573
3.03441
22.2357
4.19255
3.54577
3.67987
-5.47315
-3.42551
-2.29292
-6.04985
-6.21399
-0.0671529
0.022444
-4.76709
-4.16225
-11.9799
-11.5611
-11.9779
1.07574
16.6736
17.1677
-0.468572
-0.538037
-0.0907481
19.0085
18.7256
18.5977
-1.25092
-1.15079
-1.39624
-12.0225
-23.6006
4.90408
5.04646
-11.9027
-11.5613
1.93883
2.24277
18.9497
-11.3039
-11.2933
3.02934
2.93182
1.0919
1.1343
6.2488
6.84297
7.85132
20.1854
20.0968
-10.8474
18.7492
18.9714
1.9164
0.855253
1.2747
1.42233
0.814317
-5.51555
-3.67519
-4.57297
7.4997
8.29967
9.70959
9.18852
20.381
20.7221
-1.39274
-1.50197
2.01296
2.15665
23.1122
25.303
18.3917
18.2818
21.8203
-6.0776
-5.58703
-5.68613
0.898132
24.5815
17.1876
17.3084
3.34517
3.2247
21.1572
21.1639
-11.3861
-11.4365
2.40299
1.83451
1.62273
20.5969
20.7785
4.21901
4.6349
19.7389
19.8515
22.762
22.6116
-20.6072
0.0710673
2.76796
2.70776
-3.1135
-5.17262
26.2877
-12.1149
-2.3783
-6.67802
-6.94507
-2.17407
-1.51267
-4.80917
-4.88498
-0.538579
-0.463423
-0.914358
2.70869
2.94142
0.306648
0.830534
0.604547
27.0093
25.973
25.4025
22.1915
22.2792
21.7692
22.2201
1.23671
1.72467
1.26779
-3.50272
-3.46143
2.51702
0.618829
0.458011
0.457176
-2.75312
-2.66013
14.3789
21.9398
7.44852
19.249
18.8716
-13.4366
7.54874
0.23996
8.45364
-20.0826
11.3153
-12.4109
-14.2967
-11.9569
5.09322
5.50896
7.88551
6.26005
-12.2925
-13.7505
-8.54545
7.47532
8.35651
8.56465
11.6714
13.8624
-4.56641
-6.68808
6.37417
4.79366
8.39766
3.89428
-11.8747
-11.8459
10.3627
11.5041
4.15003
-14.2021
-17.5332
-10.1534
12.0132
-8.42604
2.56095
10.4461
10.5673
5.48623
5.58074
-4.50691
-5.18418
-9.41927
-12.3747
-12.3793
2.2001
0.531709
12.0208
12.2431
3.84107
3.43971
13.749
-8.5224
12.4182
10.7417
0.387634
-0.81374
11.5192
6.0683
10.3404
3.06907
14.0732
20.6157
5.71248
9.09899
7.1199
3.62985
9.04503
4.53654
4.95555
7.15556
6.96619
-14.5257
-14.8306
1.07725
-3.81571
-21.3578
6.12341
-4.63819
-8.33314
14.4651
1.45582
11.774
0.900224
0.144838
-12.9439
-11.0709
-6.04788
-7.18268
1.64368
-11.8563
-11.7571
5.11073
-0.0983983
-1.73387
-0.493937
1.11767
2.17692
16.8532
-6.84941
-0.837839
-0.217981
-13.7281
22.736
-2.87983
-27.9027
-18.5381
-20.9182
3.82699
-9.96531
-11.2415
11.1951
10.2532
-6.14003
9.96694
-13.4183
-6.8408
1.62226
1.58113
1.66904
1.35307
-12.0654
1.22313
4.1868
-3.578
10.4418
0.934525
0.052945
-15.7837
15.9467
6.77269
10.1671
6.9851
6.84529
-16.9641
-12.9637
9.62719
-14.2984
-6.30073
13.512
13.8479
11.1984
12.1841
-11.2473
3.86419
2.94011
2.27772
9.91689
9.66073
8.53503
7.95585
8.56695
4.95858
11.2642
6.72816
-2.75828
0.00952197
1.05189
-0.049354
-16.1689
16.4738
-2.09681
4.38468
4.6377
-11.8801
-14.2453
23.3013
-14.019
-15.2988
17.7724
12.1465
-4.229
3.2387
-3.46329
-4.55882
4.40321
11.6689
1.84351
-14.258
2.92015
2.15769
1.85265
2.46395
16.4583
16.4295
-11.6796
2.00721
-4.55354
-4.13567
3.26769
-5.72949
-12.6074
11.1611
1.2718
1.83113
13.1847
13.0329
7.25483
7.65567
1.85585
2.2717
0.991864
0.291919
-0.0100573
15.6328
-3.18901
17.2335
16.8098
17.5511
-5.81023
-6.44463
-7.52745
6.59376
-4.54377
13.0953
-4.30446
-3.25064
-4.67265
4.30769
-21.5058
-6.45736
9.53171
10.2863
9.89214
13.2476
12.4804
12.3179
9.4608
9.34869
-13.1934
6.71348
11.5571
10.9859
-4.8598
-27.6832
9.98054
-20.5658
-16.2887
3.86472
4.46601
4.75139
5.09525
-13.9016
3.10468
2.70501
3.34403
11.8042
11.0322
2.33208
-1.49846
-2.01219
0.540103
1.06097
-12.5698
-11.4895
3.04797
2.30458
12.2819
10.7319
10.3116
4.88357
5.49234
9.0971
7.90599
6.49543
8.74616
8.31466
7.67443
7.68816
8.21058
9.97695
3.72303
3.48809
3.51137
-2.87306
13.5135
7.5598
8.05726
11.6891
-4.55186
16.319
1.50047
1.68122
-14.032
-0.752764
-0.19778
-0.907879
-12.8637
-12.57
-0.664936
4.11187
3.55734
-1.05556
-0.188816
16.8022
8.84024
3.40551
4.05193
-2.06309
-16.8508
7.73305
14.4789
14.5771
8.82938
8.72137
-0.119175
0.341639
-0.186107
0.768969
1.22066
5.36438
12.7698
11.8892
5.1012
15.8104
16.3913
16.3762
12.6496
12.9282
5.90309
11.9814
4.94674
5.38415
-1.91322
-0.956115
11.1895
10.2511
3.35699
3.85633
9.36947
9.98795
-4.65129
2.54358
2.28521
2.45332
5.84889
-13.9226
-6.96678
5.27627
5.91275
-1.19151
-0.793313
-1.88132
6.76753
12.0971
11.8561
22.593
22.6532
22.8198
10.0002
10.3562
10.3162
9.31293
13.5733
10.4734
11.2956
3.78249
-13.7441
-14.6679
-4.58003