/*--------------------------------*- C++ -*----------------------------------*\
  =========                 |
  \\      /  F ield         | OpenFOAM: The Open Source CFD Toolbox
   \\    /   O peration     | Website:  https://openfoam.org
    \\  /    A nd           | Version:  6
     \\/     M anipulation  |
\*---------------------------------------------------------------------------*/
FoamFile
{
    version     2.0;
    format      ascii;
    class       surfaceScalarField;
    location    "600";
    object      phi;
}
// * * * * * * * * * * * * * * * * * * * * * * * * * * * * * * * * * * * * * //

dimensions      [0 3 -1 0 0 0 0];

internalField   nonuniform List<scalar> 
44611
(
1.52368
-2.14671
0.623026
1.52368
1.44612
-1.44612
1.93951
-0.493394
-1.31919
-0.707733
2.02692
-1.31919
-0.0924883
-2.17492
2.08983
-0.566141
1.29635
-1.29635
0.180641
1.85447
-2.17629
0.730175
2.3768
-0.340672
0.413104
-1.73229
-0.796802
-1.20054
0.796802
1.29302
-0.553183
-1.33808
0.553183
0.743167
-0.594915
-0.824375
0.824375
-1.17128
1.35192
-0.0103313
1.28959
-1.27926
-0.137702
-1.86267
2.00037
1.525
-0.215566
-1.30944
1.22005
-1.22005
-1.10256
1.10256
-1.51178
1.51178
-1.19472
1.19472
1.50483
0.0201712
-1.9208
0.409022
-0.920301
-0.786262
1.70656
-1.62803
-1.26902
1.26902
0.124451
-1.42465
1.3002
-1.49425
1.49425
-1.28138
-0.220746
1.50213
-1.37329
1.37329
1.65527
-0.143494
-0.460547
1.51078
-1.05023
1.72176
-0.501718
1.32901
-0.214845
-1.11416
-0.701508
1.09948
-0.397966
1.18875
-1.46188
0.273133
-0.881153
0.881153
-1.14577
1.03965
0.106119
0.954151
-0.954151
1.19256
-1.33026
-2.28441
0.81315
-0.81315
1.01623
-1.2318
1.82938
-2.04495
-1.60921
-0.622728
-0.820222
-0.788993
-0.899175
0.899175
-1.04034
1.03001
1.92918
0.0926293
-1.46592
0.104271
-0.299525
1.21493
1.16187
1.73229
0.166465
0.533035
-1.21764
2.03787
-1.46592
-0.983191
-0.478693
1.30196
-1.30196
0.903903
-0.417837
-0.486066
1.33049
-1.14543
-0.185062
-0.798603
-0.640865
1.43947
0.000714828
-0.0789571
0.0782423
1.67788
-0.388284
-1.69772
-0.164955
-0.357465
0.909316
-0.55185
-0.0378829
0.0446321
-0.00674921
-0.137189
-0.61207
0.74926
-1.16237
0.460861
0.011239
0.0597411
-0.07098
-0.0322223
0.00724759
0.0249747
0.856001
0.213395
-1.0694
-0.00213639
0.00213647
1.47498
0.524549
0.24053
1.23445
0.798557
0.879319
-0.0228397
-0.00938261
1.23252
-0.504461
-0.728055
0.917903
0.314612
-1.07262
-0.625094
-0.265175
-0.807446
-0.982559
-0.47763
-0.910187
1.38782
0.00425525
-0.0421382
-0.00843274
0.0337375
-0.0253047
-0.72839
0.852841
-0.650442
-0.287043
0.937486
-1.17551
0.954763
0.000436209
-0.000436195
0.0921086
0.817208
0.996011
0.652252
0.863156
0.467333
1.15914
-0.295989
-0.0784778
0.639217
-0.560738
-0.363504
-0.480349
0.843853
0.412118
-0.745592
0.333474
1.1403
0.8597
-0.748373
0.758489
-0.0101152
-0.794328
1.06746
-0.889437
0.19879
0.690646
-0.890063
-1.11953
-0.844707
-1.4397
1.10988
0.337145
-1.44703
0.927722
-0.0717207
-0.199332
0.746497
-0.547165
-0.957648
-1.0873
-1.43528
-0.848971
-1.11092
-1.61107
0.762101
-0.867978
1.277
-0.346795
0.80779
-0.460994
-0.982215
0.174769
-0.418733
-0.53766
0.956392
-1.31036
0.89163
-0.265554
0.831305
-0.56575
-0.833921
-0.0762652
0.75504
-0.617364
0.830758
-0.893416
0.593891
0.0487245
-0.0374855
0.0360564
-0.0444891
0.596695
-0.811539
0.850331
-0.683865
-1.4954
0.682874
-0.793868
0.110994
0.81253
-0.708258
0.901164
-0.0899376
-0.811227
-1.4003
0.000961618
-0.000961625
0.000961629
1.07077
-1.07077
1.0723
-1.0723
-1.15436
1.36182
-0.207463
0.625845
-1.07935
0.453501
-0.295522
1.36782
-0.899299
0.58149
0.317808
-0.929424
0.0301253
0.826993
-0.62402
-0.202981
0.0283899
0.336255
-1.13058
-1.25526
1.25526
-0.440243
1.35815
-0.108047
-0.463686
0.00556073
0.458125
-0.15212
-0.311566
-0.642274
0.490154
0.37199
1.02424
1.4024
0.616134
-0.0207951
0.975559
-0.0785555
0.931397
-1.25135
0.358694
-0.839044
-0.28358
-0.93431
0.33359
0.60072
-1.11997
0.185659
0.0897484
-0.799689
-0.963879
-0.315382
-1.45727
-0.727098
-0.233208
1.72746
1.06699
-1.2021
1.30822
-0.0644695
-0.681122
-1.05263
1.69708
-0.644446
0.0860101
-1.41281
1.35593
1.97896
-0.86205
0.86205
-1.64612
0.784075
-0.00646267
-0.00354263
0.0100052
-0.0248134
0.0300295
-0.00521616
-0.00813254
0.00471049
0.00342201
0.0481831
-0.0572492
0.00906607
-0.00386123
-0.00414258
0.0080038
0.00406457
-0.00792581
-0.0539499
0.0104891
0.0434609
-0.593819
0.29476
0.299058
-0.0636403
0.0497201
0.0139201
0.0146522
-0.0637333
0.049081
-0.00408538
0.00814994
-0.00574817
-0.000746239
0.00649441
0.0179914
-0.000725687
-0.0172657
-0.00216537
-0.0101291
0.0122945
0.00551872
0.00399395
-0.00951267
-0.00130413
-0.00571426
0.0070184
0.00595601
-0.00534437
-0.000611633
0.00925906
-0.00278588
-0.00647321
0.0117597
0.013283
-0.0250427
0.0364395
-0.0246799
0.00147048
-0.00730157
0.00583107
0.00679525
-0.00532477
0.634508
-0.435718
0.0811125
-0.043408
-0.0376988
-0.0174732
-0.020775
0.0382482
0.0266795
-0.0468067
0.0201271
-0.00412023
0.00412073
-0.00774336
0.00170795
0.00603543
0.0327196
-0.0128692
-0.0198505
-0.0467623
0.0092751
0.0374872
-0.0858263
0.0158395
0.0699867
0.00416948
-0.00932072
0.00515121
-0.009768
0.00641994
0.00334804
0.0972217
-0.0330532
-0.0641659
-0.00247356
0.0570766
-0.0546025
0.0426614
-0.0419689
-0.00069262
0.00117209
-0.0194585
0.0182864
-0.0582978
0.014992
0.0433058
-0.0388696
0.0537878
-0.0149182
0.00319556
-0.00743396
0.00423837
-0.00578319
-0.00214262
-0.00583597
-0.0070478
0.0128838
-0.00997854
-0.0376448
0.035172
0.0295027
-0.0671469
-0.00302953
0.00933566
-0.00630614
0.031488
0.00912363
-0.0406116
0.0189465
-0.00466198
-0.0142846
0.00322889
-0.00322901
0.00868327
-0.0277579
0.0190746
-0.00836585
0.00519575
0.0031701
0.0579557
-0.0571284
-0.000825722
0.031074
0.0317026
-0.0627766
0.05647
-0.0253961
-0.00548285
-0.00288298
-0.0195797
0.0211341
-0.00155434
-0.00708692
-0.0124928
0.0036726
-0.0107204
-0.00730751
0.00921255
-0.00190507
0.00523643
-0.00817398
0.00293754
-0.0241778
0.03883
0.0204543
0.0107173
0.00727409
0.0179649
-0.0245025
0.029406
-0.00490364
0.226467
-0.187731
-0.0387361
-0.00722356
0.00294869
0.00427487
-0.630948
0.343905
-0.0213709
0.014284
0.0864702
0.46337
-0.54984
0.0555634
-0.0714661
0.0159027
-0.00273448
0.00503264
0.0134574
-0.0184901
0.00128656
-0.00128659
-0.0565073
0.473404
-0.416897
0.0132087
-0.0020944
-0.0111144
0.00947514
-0.00473283
-0.00474234
0.00574719
0.00351184
0.00772469
-0.0270333
0.0193086
0.0182853
-0.0218031
0.00351782
0.00935993
0.00892536
-0.0254101
0.0528481
-0.027438
0.00545414
0.004021
-0.00271589
-0.00450768
-0.0133464
-0.0159418
0.0292882
0.00254303
0.0084819
-0.0110249
-0.00411708
0.0065733
-0.00245626
-0.00779323
0.00367615
0.00686124
-0.000287979
0.000506656
0.0149689
-0.0154755
-0.00923163
-0.0289683
0.0381998
-0.00946404
-0.0355753
0.0450393
-0.429602
0.355532
0.0740702
-0.033766
-0.00510355
0.018774
0.0305137
-0.0492877
0.0161558
-0.00327201
-0.0213006
0.0201008
0.00119961
-0.0173463
-0.00395432
0.0262384
-0.0168784
-0.0478813
0.0274628
0.0204183
-0.00140202
0.0073898
-0.0059878
-0.0035864
0.0518389
-0.0482514
0.0543698
0.0459256
0.00591379
-0.00157929
0.0241416
-0.0225622
0.0161302
-0.0156235
0.0145509
-0.00554426
0.0214954
-0.0159512
0.004524
-0.0189021
0.0143781
-0.00919349
-0.00877972
0.0179732
0.00973175
0.006424
0.000538262
-0.00235573
-0.0269917
0.0193123
0.00767932
-0.0232005
0.0250248
-0.00182426
-0.0501921
0.0443371
0.00061194
-0.0083553
-0.00434563
0.00705719
-0.0027116
-0.0269125
-0.566906
0.0540398
0.0311905
-0.085229
-0.0132834
0.00681226
0.00647109
0.0104631
-0.00700639
-0.00345674
-0.0462253
-0.0241301
0.0703569
0.320293
-0.528507
0.208214
-0.00492727
-0.00505127
-0.0881707
0.222399
-0.134228
-0.921084
0.309014
-0.00548322
0.00628354
-0.000800333
-0.00772553
0.00699983
0.0337403
-2.74319e-06
0.0255032
0.00823705
0.0241388
0.00782141
0.0133127
0.0123454
0.0034055
0.00990717
0.000763011
-0.0236028
-0.0165028
0.0066427
-0.0158243
0.00918159
-0.0154158
-0.00108694
-0.00877313
-0.0246734
9.29913e-05
0.0245804
-0.03891
0.0136053
-0.245567
-0.184036
-0.0250345
-0.038606
0.0236223
0.0301655
0.0313016
-0.389816
0.493821
-0.104005
-0.511204
0.501089
0.00165629
-0.0016563
-0.00592331
0.00252024
0.00340306
-0.0730485
0.0268235
-0.00251073
0.0451721
-0.434453
-0.48663
0.164801
-0.599253
-0.553945
0.067315
0.00210421
0.0293838
0.0255341
-0.0268047
0.00127063
0.0404671
-0.0446476
0.00418031
-0.007866
-0.0139372
-0.0134103
-0.00403023
-0.00990695
0.0579063
-0.141595
0.0836888
0.244372
0.222362
-0.466734
0.345184
-0.100813
0.555836
-0.0177087
0.0202226
-0.00251407
-0.0144051
0.0222673
-0.00786248
-0.0321139
0.0424898
-0.0101664
-0.0485969
0.0587632
0.036184
-0.000127648
0.0260177
-0.0341591
0.0262965
0.00228037
-0.0215849
0.00630201
0.00406689
-0.0103689
-0.00378475
0.00878382
-0.00499911
-0.0465656
-0.000196623
-0.0156496
0.042329
0.0273363
0.0209572
-0.0482934
0.0362472
-0.02973
-0.00651726
0.0309957
-0.0302809
0.0327376
-0.0284823
0.00973253
-0.00266344
-0.00706914
0.510623
0.123885
0.582384
-0.071761
0.885814
-0.418481
0.0861254
-0.00912219
0.000829188
0.00829295
-0.0101464
0.00368371
-0.00961766
0.00659789
0.00301974
0.00166506
-0.0112827
0.0117201
-0.00512221
0.00476946
0.0194055
-0.0241749
0.00874645
0.00331818
-0.0120646
0.00840471
-0.00955802
0.00115327
0.00687266
-0.00852031
0.00164761
0.00441427
-0.00875993
0.0130204
-0.0304935
-0.00865203
-0.00646231
0.0151143
0.00594948
-0.0146015
0.00718938
-0.0136517
-0.020758
0.0113753
-0.00474525
0.0307629
-0.00820463
0.0118772
-0.0069097
0.0116792
0.0235564
-0.490483
0.547541
-0.0570582
-0.0218722
-0.00384132
0.0257135
0.00141794
0.0179875
0.0141462
0.0207304
-0.0725131
0.0517822
-0.0316895
0.0524196
0.000626763
-0.00609905
0.00547228
0.00675195
0.000109276
0.00737873
-0.0059898
0.758897
0.00916328
-0.768061
-0.0523301
-0.512204
0.193389
0.318815
0.0342298
0.00623721
-0.00826899
-0.0337
0.0259608
-0.040479
0.071604
-0.0311251
0.443334
-0.5478
0.104465
-0.038334
-0.0298441
0.068178
-0.0726086
0.0342746
-0.358352
0.594859
-0.236506
-0.579134
0.55834
-0.0599225
0.163718
-0.103795
0.102046
0.124418
0.00316861
-0.00303683
-0.000131796
0.255499
0.113647
-0.369146
0.261059
0.0179863
-0.0168142
0.00794135
0.024236
-0.0321775
-0.0212243
-0.0108896
-0.0324294
0.0229653
-0.0166517
0.0496433
-0.0329917
-0.886066
-0.188187
1.07425
0.571454
0.373737
-0.945191
0.470284
0.287493
-0.757777
0.180711
0.289572
-0.508392
0.619386
-0.467167
0.631968
-0.305823
0.392293
-0.440674
0.362118
0.754411
0.0124955
0.0202241
-0.0202202
-0.00428227
0.0305301
-0.0214065
0.00571667
0.0314416
0.00181444
0.00864864
-0.00744861
-6.63071e-05
0.0075149
-0.00563416
0.00858232
0.505551
-0.042181
-0.0896575
0.447135
-0.357478
0.415893
0.00137648
-0.00220213
0.000825804
-3.51086e-05
0.00233315
-0.00229806
0.0590054
-0.767041
0.708035
0.00221136
-0.00019581
-0.00201555
0.161483
-0.103577
-0.0392676
1.17956
0.285532
-0.962641
0.677108
-0.00169178
-0.00242832
0.00240101
-0.00409271
-0.753737
0.339291
0.414446
0.573026
-0.859482
0.494158
0.365324
0.0794968
-0.0224201
-0.268009
0.498206
-0.230197
-1.19783
0.55696
-0.00181269
0.00181276
-0.696151
0.669238
-0.0103094
0.00482652
0.777748
-2.03301
0.749193
-0.758131
0.00893816
-0.555249
1.62602
-0.60907
0.697316
-0.0882455
0.385187
0.258066
-0.643254
0.828521
0.00254815
-0.00254804
-0.244253
0.78035
-0.536096
-0.734736
-0.466984
0.800574
-0.623414
0.0345286
-0.066218
-0.85709
-0.340742
-1.28519
0.82419
0.535925
-0.614403
-1.03702
0.471266
0.0446321
0.46348
0.879688
-1.34317
-0.831044
1.29452
-1.38629
-0.769597
0.351756
-0.688526
-0.0810688
-0.868368
0.0088859
-0.809363
1.33925
-0.814701
0.184887
0.393655
0.00167505
0.00298619
-0.00466124
-0.129859
0.363961
0.213727
-0.902252
-0.365213
0.152513
0.2127
-1.06007
0.624336
0.124857
-0.633222
0.00273569
-0.00295865
0.00022294
-0.955227
0.03024
0.0761659
0.0215639
-0.467595
0.651179
-0.183584
-0.344162
1.47879
-1.82295
-1.00612
-0.104793
0.920114
0.51936
-0.019216
-0.0911254
0.0719094
0.830889
-0.510596
0.363294
-1.6943
1.39878
0.896559
-0.402918
0.210889
0.192029
-0.991752
1.8538
-0.737555
0.53651
0.201045
-0.261304
-0.476251
-0.207678
1.24657
-1.45425
0.00232617
-0.000669874
-0.305389
0.783032
0.0452505
-1.31806
0.198094
-0.519508
-0.00138317
0.00138316
-0.0115738
-0.610026
1.54131
-0.179485
0.611885
0.0611573
0.0360651
-0.0249077
0.0566103
0.239974
0.115558
-0.162944
0.0107105
0.60724
-0.598077
-0.55491
-0.284134
0.901457
-0.41884
0.0025748
-2.65285e-05
0.64667
0.0325438
-0.47966
-0.589639
-0.0337754
-0.900268
0.31063
-0.534944
0.709134
-0.433052
0.54861
-0.717187
-0.26503
0.475919
-1.34622
-1.48972
0.649464
-1.04484
0.0551947
0.00127526
-0.253656
0.83191
-0.578255
0.0409138
-0.0916338
0.0522049
0.0394294
-0.0544644
-0.037167
-1.19022
1.05261
0.137614
0.227555
-1.27239
0.828275
-0.361945
0.0306466
0.229704
-0.260351
-0.0860687
0.116715
-0.00768773
0.0218339
0.0158686
0.0164069
0.00473179
-0.393635
-0.569006
-0.618926
0.0915617
-1.55748
-0.0235319
-0.0610174
0.770733
-1.53204
0.761307
-0.87931
1.65004
-0.754293
0.212716
0.163336
1.23033
1.55748
0.169975
0.0521709
-0.049018
-0.00315257
-0.00495688
1.64312
-1.02699
0.915066
-0.282679
0.00446994
-0.0955953
-0.0754148
0.0798847
0.873639
0.200613
0.688578
-1.06228
0.643801
-0.373705
-0.937262
0.477699
-0.652884
0.036946
0.817297
0.534617
-0.576155
-0.897912
0.321757
-1.0873
0.538719
-0.0469848
0.118894
0.0328999
0.149615
-0.00420076
0.0039278
0.000272966
-0.00252572
-0.14496
-0.572227
-0.390526
0.0182255
1.58845
1.08673
0.00259158
-0.00570585
0.00311423
-0.00420775
0.00679932
0.00910584
-0.00470563
-0.00440019
0.00145381
0.00765204
-0.00346839
0.00640867
-0.00294029
0.00667628
8.57688e-05
-0.00676207
-0.00120224
0.00838309
-0.00718084
0.00710261
-0.00615955
-0.000943072
-0.00479814
-0.00169933
0.00649747
-0.00109368
-0.00502143
0.0061151
-0.00430125
0.00204716
0.00225409
0.00246663
0.00647905
-0.00894569
-0.00123356
0.00991364
-0.00868005
-0.00919341
0.00302932
0.0061641
-0.00107749
0.00888556
-0.00780808
-0.0151983
0.0148312
0.000367136
-0.00661932
0.00333924
0.00328009
0.0101697
-0.0111598
0.000990101
-0.0170421
0.0114497
0.00559234
-0.00530249
0.00500373
0.000298757
0.00730824
-0.00854177
-0.0176189
0.00191281
0.015706
-0.00916813
-0.00845075
-0.00685436
0.00252737
0.00432699
0.000763428
-0.00761779
0.00397235
0.00450413
-0.00847651
-0.00696097
0.000200471
0.0067605
-0.00273289
-0.00422808
0.00123308
0.00480463
-0.00603772
0.00856209
-0.00888055
0.000318457
0.00755197
0.00101011
-0.00835112
-0.00283444
0.0111855
-0.00575483
0.00466115
-0.00191984
-0.00428139
0.00620124
0.00278306
0.00362909
-0.00641215
-0.00696914
0.00613317
0.000835981
-0.00229613
-0.00467301
0.00541163
-0.00814452
-0.0099734
0.00226487
0.00770854
-0.00289237
-0.00708103
0.00167202
-0.00684801
0.00517598
0.00433126
-0.00110089
-0.00323036
0.00417644
0.000154814
-0.0163538
0.0293743
-0.00241761
0.00461537
-0.00219775
-0.0066183
-0.000523247
0.00714152
-0.000179073
-0.00643923
0.00182952
-0.00325927
0.00142974
0.0237869
-0.0370689
0.0132814
0.0262394
-0.00779732
-0.018442
0.0022562
-0.00812042
0.00586423
0.0111549
-0.00131158
-0.0098433
0.00380956
-0.00265047
-0.00115909
-0.0075627
-0.00223389
0.00979658
-0.0134939
0.00911513
0.00437878
0.00411722
-0.0102435
0.00612631
-0.00647168
0.00126
0.00521165
0.0135314
-0.00293582
-0.0105956
-0.00862409
0.0221554
0.00148975
0.00686676
-0.0083565
0.00308132
0.00683372
-0.00991502
-0.00602529
-0.00253083
0.00855613
0.00568385
-0.0117785
0.00609468
0.00762403
-0.00598958
-0.00163445
0.00235694
-0.00841475
0.00605781
0.010595
-0.0225597
0.0119646
0.00193363
-0.00711916
0.00518552
-0.00639639
-0.000661136
0.00705752
0.00978145
-0.00593039
-0.00385106
-0.0100519
-0.000315793
0.0103676
-0.00808452
-0.0012101
0.00929453
0.00517216
-0.323667
0.318494
0.191026
-0.185853
0.009958
0.000662169
-0.0106202
-0.00144485
-0.0080322
0.00947706
0.00102819
-0.00523361
0.0042054
-0.00816291
0.00557484
0.00258807
0.00129834
0.00887089
-0.0101692
-0.0110772
-0.00412109
-0.00433193
-0.00674527
0.011389
0.0148504
0.00838614
-0.00838634
-0.00461445
-0.00429321
0.00890766
-0.00953992
-0.00534309
0.014883
0.00614763
-0.00272964
-0.00341799
0.00923593
-0.00822109
-0.00101485
0.00569329
-0.00587445
0.00737162
-0.00149716
-0.00803814
0.00076642
0.0072717
-0.00372369
-0.00431445
-0.00739649
0.00798385
-0.00798387
-0.00133721
-0.00440415
0.00574136
-0.00697121
0.00672824
0.000242946
-0.000947878
-0.00602334
-0.00385894
0.0065657
-0.00270678
-0.0055721
0.00301454
0.00255756
0.00112955
-0.00670165
-0.00467749
-0.00245485
0.00713233
-0.0106058
0.00469373
0.00591202
-0.00837807
0.00880207
-0.000423986
-0.00462749
-0.00375058
6.61496e-05
0.0175317
-0.0175979
-0.0190067
0.0286305
-0.0096238
0.00561983
0.000336177
0.00751735
0.00102502
-0.00854236
0.00930258
0.00679426
-0.0160968
0.029536
-0.0428446
0.0133085
-0.00774489
0.00912969
-0.00138478
-0.00541134
-0.0105241
0.0159355
0.00778537
-0.00523861
-0.00254674
0.00194943
0.00583594
-0.00422274
-0.00403753
0.00826027
-0.00699811
0.00935505
-0.0113968
0.00537147
-0.00481834
0.0103676
-0.00554927
-0.00121306
0.00336465
-0.00215159
0.00526817
-0.00710288
0.00183471
-0.00855341
0.0018343
0.00671912
0.0106695
-0.00414114
-0.0065284
0.00364438
0.00702518
-0.00640438
0.00119856
0.00520582
-0.00591008
0.005731
-0.00840649
-8.25337e-06
-0.00532517
0.00291889
0.0049634
-0.00788228
0.00466708
0.00381788
-0.00848496
-0.00407348
0.00868454
-0.00461106
0.00723964
-0.00818752
-0.00805621
0.00720286
0.00085335
-0.00744286
0.00323507
0.00756558
-0.00301927
-0.00454631
0.0102341
-0.0105685
0.000334395
-0.00526599
0.00463601
0.00062994
0.00544109
0.00350063
-0.00894172
-0.00472183
0.0145572
-0.00983542
-0.0151372
0.00596903
-0.00496747
-0.00909549
-0.00644611
0.0155416
0.0130298
-0.0221253
0.0389675
0.0107526
-0.0091891
0.00645463
0.00273445
0.00583324
0.00155409
-0.00738735
0.00729873
0.00470354
-0.0120023
0.027939
-0.0565703
0.0286305
0.0441283
-0.016189
-0.00612665
0.00536588
0.000760757
-0.0221313
-0.0254742
0.0476056
0.114773
-0.0117803
-0.102995
-0.00662596
0.00719739
-0.000571424
0.0277932
-0.00267784
-0.0251155
0.0392432
-0.0114501
-0.00193621
0.0069475
-0.00501129
0.00127708
0.0101033
-0.0113803
-0.00626991
0.000736284
0.00553361
-0.000519489
0.00877813
-0.00825864
-0.00795353
0.01184
-0.00388648
0.0162076
-0.0111138
-0.00509387
-0.000653564
-0.0059087
0.00656224
-0.00259223
-0.00426231
0.00685452
0.00483722
0.00436603
-0.00920327
0.00500371
0.00146543
-0.00646913
0.0111873
-0.00721523
-0.00397204
0.00913015
0.00205712
0.00411504
0.0047985
-0.00891355
0.00764866
-0.00367633
-0.000393227
-0.00594281
0.00633603
0.00141473
-0.00676068
0.00534594
0.00948019
-0.00802639
0.0100725
-0.00662894
-0.00344359
-0.00614313
0.000394957
0.00647847
-0.00353042
-0.00294806
-0.000140853
-0.009023
0.0054926
-0.00315543
-0.00368648
0.00684192
0.0104009
-0.0118457
-0.00793763
0.00371488
0.00247237
-0.00816378
0.00569141
0.00664186
0.00751723
-0.0055836
-0.0106383
0.00273644
0.00790182
0.00734843
-0.00503134
-0.0023171
-0.00286844
-0.000817793
0.00368622
0.00031483
0.00498223
-0.00529706
0.00669026
-0.00637541
-0.000776566
-0.00706366
0.00784021
-0.0803203
-0.192223
0.272543
-0.036687
0.0315834
0.00510354
0.0061103
0.000866824
-0.00697714
-0.00307881
-0.0071549
0.00268662
0.00446827
-0.00612748
-0.00709059
0.0132181
-0.00552928
-0.00830855
0.0138378
-0.00464344
0.0088381
-0.00419466
-0.00434396
0.0106701
-0.00632611
0.00567976
-0.00407084
-0.00160891
0.00122393
0.00445582
-0.0028874
-0.0024151
0.000767646
0.00699113
-0.00775877
0.00177957
0.0059012
-0.00768077
3.32328e-06
-0.00758401
0.00758069
0.00371409
0.0121611
-0.0158752
0.000647487
-0.0068893
0.00624181
-0.00585066
0.00649814
0.00508514
-0.00758459
0.00249944
-0.0063091
0.0080632
-0.00175412
-0.000781306
-0.0055278
0.00587298
0.0053059
-0.0111789
0.413375
-0.219987
-0.00491155
0.0108701
-0.0059585
-0.0113959
0.00304478
-0.0100976
0.00818934
-0.00632342
-0.00186592
0.00427111
0.00166685
-0.00593795
0.00662334
-0.00580037
-0.000822968
-0.000669516
-0.00715997
0.00782948
-0.000616878
-0.00732516
0.00794205
0.00249913
-0.00875661
0.00625748
-0.00698695
-0.00774397
0.0147309
0.000465435
0.00609633
-0.00656177
0.000274857
0.00572737
-0.00600222
-0.000836398
0.00813514
-0.0100264
0.00302832
-0.00319271
-0.00836843
-0.00712324
0.00673645
0.000386795
-0.00305003
-0.00407322
0.00670154
-0.00623698
-0.000464547
0.00368409
0.00301745
-0.00613007
0.00841078
-0.0022807
-0.00686398
0.000733917
-0.00479356
-0.00406182
0.00885539
0.00512871
-0.0169976
0.0118689
0.0117991
-0.00781491
-0.00398417
0.00737993
0.00441919
-0.0392301
-0.0147197
0.00552583
0.00321396
-0.00873978
-0.0102082
0.00645401
0.00375415
0.0034838
0.00432259
-0.00780636
0.0161651
-0.00811925
-0.00804582
0.0102822
-0.0148149
0.0045327
-0.00395884
-0.00428748
0.00824632
0.00139971
-0.00984207
0.00844235
-0.00428715
-0.00729885
0.011586
0.00934446
-0.00633125
-0.00301321
0.00357903
0.00573055
-0.00930958
-0.00215691
-0.00703122
0.00918812
-0.00433741
-0.0042126
0.00855
0.00303851
0.00422755
-0.00726606
0.0078467
-0.00839955
0.000552848
0.000963607
-0.00937885
0.00841524
-0.0262387
0.0201766
0.00606209
0.00768426
-0.0339229
0.0103769
-0.00704197
-0.0033349
-0.00814679
0.00110725
0.00703955
0.00322061
0.00424167
-0.00746229
0.000894443
0.00312061
-0.00401506
0.0575353
0.0247248
-0.0822599
-0.028291
0.00901419
-0.00761448
0.00483041
0.0010471
-0.00587751
0.000620236
0.00520301
-0.00582325
-0.0216068
0.0151417
0.00646508
-0.013162
-0.00844474
0.00165747
-0.00665636
0.0049989
-0.0405892
-2.24002e-05
0.00780728
-0.00802577
0.000218498
0.0048131
0.00553927
-0.0103524
0.00681382
-0.00181092
-0.00500292
0.0194546
-0.0107713
0.0110495
0.00615206
-0.0172016
0.00101748
-0.00878899
0.00777151
0.00203463
-0.0127381
0.0107034
8.28322e-06
-0.0125077
0.0124994
0.00433106
-0.00785493
0.00352387
-0.00897031
0.00299287
0.00597739
-0.00308629
-0.00463723
0.00772349
0.0037416
0.00499085
-0.00873244
0.00722094
-0.00645751
0.0043407
0.00309912
-0.00743981
-0.00864984
0.00416067
0.00448917
-0.00173401
-0.00691582
-0.0064343
0.00822414
-0.00178983
0.00769949
0.000268354
-0.00796784
-0.00163836
-0.0019777
0.00361606
-0.00366694
0.0138854
-0.0102186
0.000597856
0.0112654
-0.0118633
-0.000564595
-0.00971759
0.0102822
0.00766316
-0.0124153
0.00475211
-0.0109883
0.00295612
-0.0083673
-0.002621
-0.00740729
-0.0042913
0.0116986
0.00482636
-0.0106294
0.005803
-0.00734209
-0.00194912
0.00929122
-0.00657445
-0.00838343
0.00155424
-0.00703841
0.00548412
-0.00426812
0.00597607
-0.0227294
0.0121873
0.0105421
0.00697623
-0.000843345
-0.00613289
-0.00565737
0.0060523
-0.000394937
0.0147195
-0.0044373
0.00930281
0.00541672
0.0117278
0.0107734
-0.00924731
-0.0015262
0.00268886
-0.00319027
0.0326941
0.0103089
-0.0038517
-0.00645723
0.00741251
-0.00845092
0.00103841
0.000944742
0.00646776
0.00821145
-0.00830779
9.63479e-05
0.0045842
0.00362725
-0.0025145
-0.0164922
-0.0111386
-0.00945676
-0.00703545
0.00919251
-0.00184921
-0.00734332
-0.00759609
0.00741186
0.000184224
0.00361597
0.00371117
-0.00732715
-0.0131055
0.00640617
0.00669933
-0.00575212
-0.00551904
0.0112712
-0.0228993
-0.0193724
0.0422718
-0.0099117
0.0065242
0.00338749
-0.00589363
-0.00401807
0.0108002
-0.00804977
-0.00275048
0.00269467
0.00676344
-0.00945811
-0.00786642
0.00666419
0.00171375
-0.00784847
0.00613472
-0.00641098
0.00558041
0.00083056
-0.00180015
0.00337827
-0.00157813
-0.00429198
0.0164053
-0.0121134
-0.0249657
0.0206737
0.137668
-0.241673
-0.185999
0.0607687
-0.0182527
-0.0425153
-0.00949506
0.00411276
0.00538229
-0.0105058
0.00101075
-0.0037206
-0.00497611
0.00869673
0.00484283
-0.00856342
-0.0128308
0.0212878
-0.00845705
0.0171988
0.0275236
-0.00623582
-0.00981478
-0.0406977
0.0505123
0.0310785
-0.0408933
-0.00131454
0.00869325
-0.00529481
0.0244609
-0.0191662
0.0114018
-0.0292108
0.017809
0.000733985
-0.00779009
0.00705612
0.0176004
-0.00404661
-0.0135538
0.0154549
0.00214551
0.00468651
0.00483728
-0.00952378
-0.00522851
-0.00934459
0.0187649
-0.00942035
0.00371576
-0.006308
-0.00388033
-0.0362693
-0.0331257
0.0693966
0.0418269
-0.0625449
0.0207176
0.00421434
0.00625519
-0.0104695
-0.00336409
0.00757842
0.000663431
0.00559175
0.00344809
0.00452452
-0.0079726
-0.00344973
0.00847656
-0.00502682
0.00750642
0.00168607
-0.00365765
0.00918348
-0.00314811
-0.00268426
0.00583236
-0.0107779
0.0136266
-0.00284881
-0.00551903
0.0149837
-0.00946475
0.00973097
-0.000860111
0.00689653
0.0107656
-0.000942252
-0.00982334
0.00424507
0.00384103
-0.00808611
-0.011438
0.00590876
-0.00389819
-0.00693522
0.0108334
0.00849865
-0.00392764
-0.00457101
0.00128342
-0.00619718
-0.00367955
0.00987673
-0.0051797
0.00407673
-0.00775628
0.00252099
-0.00803634
0.00551535
-0.00586041
0.0083814
0.00573102
-0.00425942
-0.00147161
-0.00892659
0.00433949
0.00458705
0.0078182
0.00131617
-0.00913436
0.00317272
0.00343725
-0.00660996
0.00430226
0.00538668
0.00961828
-0.0117837
-0.00749319
0.00256404
0.00492916
0.0167971
0.0235031
-0.0403003
0.0371262
-0.0200748
-0.0170515
0.000130972
0.00609105
-0.00622204
-0.00539776
0.00552873
0.00211861
0.00397244
0.00916242
-0.00483135
0.00271221
0.00579546
-0.00850766
-0.000337615
-0.00557247
0.006742
-0.00165686
-0.00722933
-0.0113364
0.00901866
0.00231778
-0.0108468
0.0103273
0.00861169
-0.0039824
-0.00462931
0.00113942
0.0118903
0.0117345
0.00637133
0.005519
0.00685643
-0.00974881
-0.00185895
-0.00861212
0.0104711
0.0130131
0.00175307
-0.0147662
0.021045
0.00836097
0.0324468
-0.00375881
-0.00602535
0.00978418
-0.0074805
0.00372167
0.00516141
-0.00568467
-0.00957226
-0.0286823
0.0382545
0.000297721
0.00708578
-0.0073835
0.0097242
-0.00788529
-0.0018389
-0.0162933
-0.000730263
0.0170235
-0.0446619
0.0202717
0.0243901
0.0355903
-0.0267233
-0.00886709
0.00377423
0.00589662
-0.00967085
0.0137848
-0.0202309
0.00019675
0.00730967
0.00592792
-0.00573117
0.00441373
0.00289593
0.00358763
0.00479547
-0.00488082
0.00846846
-0.00167935
0.00647482
0.00906479
-0.0222268
-0.00708776
0.00643419
-0.00572522
0.00409364
0.00163157
0.000108014
0.0219238
-0.0255646
0.00364078
-0.00668328
-0.00392249
0.0048481
0.00225451
0.00608119
0.00725823
0.00774341
-0.00602966
-0.00652078
0.00652069
-0.037443
0.0123091
0.0251337
0.00656602
-0.00824375
0.00167771
0.00812027
-0.00160124
0.00419882
-0.00259758
-0.00190794
0.00190791
0.0197696
0.0173565
-0.00724535
0.00675212
0.00049324
0.032049
-0.00188357
0.00586301
0.00379316
-0.00965618
-0.00230522
0.00816823
0.00214221
0.00746903
-0.00961124
0.00747733
-0.00399354
0.00873762
-0.00935449
0.0374148
0.0190283
-0.056443
-0.00509269
-0.00473389
0.00982659
-0.0134312
-0.00286206
-0.000754783
-0.0126764
0.0141955
-0.0170576
-0.00734782
0.00132247
0.0252492
0.00262376
-0.027873
0.00938725
0.0158619
-0.0262582
0.0288819
-0.00169106
0.00738151
-0.00569046
0.00193722
0.00581178
-0.00774901
-0.00391822
0.00391813
-0.00490305
0.00821623
-0.00331317
-0.00768894
-0.0346587
0.0167769
0.0178817
-0.012735
-0.00818879
0.00553928
-0.00553938
-0.0035795
0.00357946
-0.00370707
0.0128123
-0.00910527
-0.00163562
-0.00860786
0.0102434
-0.0103877
0.00738639
0.00300124
0.000907215
-0.00671469
0.00580751
0.00716576
-0.00140557
-0.00576019
0.00807297
-0.0106583
0.00879934
-0.00799044
0.00819354
-0.000203131
-0.00478912
-0.00269138
0.00589096
-0.0102349
0.00294479
-0.0029449
0.00469836
0.00295029
0.00480638
-0.0117179
0.0032412
0.00847671
-0.014879
0.000215305
0.0146637
0.000670816
-0.0102663
0.00959552
-0.00691177
-0.00980441
0.0167163
0.00556096
-0.00414623
0.00304114
-0.0058902
0.00284906
0.0261294
-0.001155
-0.0249745
0.0233269
0.00419661
-0.00739376
0.00777658
-0.000382843
-0.0111445
0.00501699
-0.0136893
0.00254484
0.0132239
-0.0082069
-0.00917475
0.000385766
-0.00592548
-0.00324928
0.00110538
0.00563107
0.0170384
0.010375
-0.0274134
0.00305835
0.00625632
-0.00931468
0.00734374
-0.016466
0.00912225
0.00430091
-0.00430041
-0.00922612
0.0025307
0.00669541
0.00250943
-0.00756622
0.00505681
0.00286017
-0.00286023
0.00758838
-0.00489371
-0.0120368
0.0105453
0.00149148
0.00282306
-0.00808495
0.00526189
-0.0126083
0.0145211
0.00419132
-0.00798244
0.0037911
0.00714001
-0.00565733
0.00586612
-0.000208794
0.00597966
0.000323827
-0.00630352
-0.0202711
0.0237109
-0.00343977
0.020332
0.00020597
-0.0205379
0.00998839
0.00484278
0.00999667
0.0121865
-0.00349344
-0.0100005
0.00458601
-0.00807945
-0.000174965
-0.00982549
-0.00339252
0.00598347
-0.00259095
0.00309243
0.00315645
-0.00624889
-0.00559417
0.00559412
0.00413057
0.00379114
-0.00792171
0.00204467
-0.0020447
0.005957
-0.00988464
-0.00755081
0.00805306
-0.000502271
-0.265027
0.0600481
0.204979
-0.165915
0.244384
-0.0784693
-0.430943
0.304433
0.00948758
-0.00154151
-0.00794607
-0.0073292
0.000523371
0.00680581
-0.00450614
-0.465259
0.321599
0.143661
-0.153208
-0.312052
-0.0014117
0.0105419
-0.000463285
-0.0144157
0.0137157
-0.00820496
-0.00551076
0.0132524
-0.00814247
0.00708081
0.00106167
-0.00509344
-0.00657407
0.0116675
-0.00643122
0.00603799
-0.00702079
-0.000214829
0.00723563
0.0220336
0.00350049
0.000559885
-0.020831
-0.0281178
0.0331659
-0.00504816
0.0111253
-0.00753173
-0.00302197
0.00302195
0.00234378
0.00705177
-0.00939554
-0.00634101
-0.00310835
0.00944937
-0.00399721
0.00394343
0.00313093
0.00368289
0.00622335
-0.0108981
0.0130782
-0.00218009
0.000499668
0.0181788
-0.0186785
0.0215641
-0.0210644
-0.00116131
-0.00463466
0.00579598
-0.033071
0.00913542
0.0239355
-0.0286102
-0.00446082
0.0346665
-0.0255311
0.00546306
0.00280672
-0.00826978
0.00666162
0.00807488
-0.0123377
-0.00113528
0.013473
-0.0104571
-0.00188061
-0.0034629
0.0554417
-0.0519788
-0.0152941
-0.0221489
-0.0063811
-0.00175146
0.00119658
-0.00645314
0.00525655
-0.000296836
-0.0061184
0.00641523
-0.0064366
0.00613976
0.0034738
0.0133109
-0.0167847
-0.0138261
-0.00396634
0.0177924
-0.0103523
-0.00616012
0.00700459
-0.000844487
-0.00460602
0.00695569
-0.000976044
-0.0319039
-0.00049375
0.0323976
-0.0129751
-0.0189288
0.0336258
-0.0341195
0.0212455
-0.0191413
-0.00555916
-0.0012071
0.00120705
0.00512337
0.00167187
-0.00183123
0.00695463
-0.0131458
-0.016065
-0.0184407
0.00146907
-0.00146909
0.00393657
-0.0039366
-0.00228117
0.00228111
0.00588027
-0.00118655
0.00120278