/*--------------------------------*- C++ -*----------------------------------*\
  =========                 |
  \\      /  F ield         | OpenFOAM: The Open Source CFD Toolbox
   \\    /   O peration     | Website:  https://openfoam.org
    \\  /    A nd           | Version:  6
     \\/     M anipulation  |
\*---------------------------------------------------------------------------*/
FoamFile
{
    version     2.0;
    format      ascii;
    class       volVectorField;
    location    "600";
    object      U;
}
// * * * * * * * * * * * * * * * * * * * * * * * * * * * * * * * * * * * * * //

dimensions      [0 1 -1 0 0 0 0];

internalField   nonuniform List<vector> 
29884
(
(7.48991 0.0598579 -1.0405e-16)
(5.33207 0.0257101 8.91895e-17)
(5.41224 -0.115444 5.01111e-17)
(7.1107 -0.0758654 1.55051e-18)
(7.21645 0.103652 -3.03472e-17)
(5.74368 0.155785 7.34638e-17)
(7.90036 -0.117823 -3.48147e-19)
(7.3985 -9.43061e-05 4.24944e-17)
(4.70035 0.121467 2.49603e-17)
(7.13535 0.0178499 7.84812e-17)
(7.44382 0.00886029 -3.31462e-17)
(7.20165 0.195518 2.18499e-17)
(8.0792 -0.13213 -2.42683e-17)
(7.16887 -0.112463 2.4422e-17)
(7.19229 0.0996248 -3.29373e-17)
(4.43715 -0.0565441 8.53593e-17)
(8.23577 0.0514638 -3.53099e-17)
(6.67538 0.195558 -5.94818e-17)
(6.52693 0.162972 0)
(4.18244 -0.00380481 -1.6522e-16)
(7.80338 0.209595 1.45112e-16)
(4.94068 -0.037806 0)
(8.00612 -0.0623669 -4.46582e-18)
(7.11443 -0.0216358 0)
(7.07084 -0.013132 0)
(7.59583 0.0440324 -2.78537e-17)
(7.85623 -0.00886205 0)
(8.03023 -0.0458272 8.46551e-17)
(5.16256 -0.0248906 8.88805e-17)
(5.17278 0.1137 7.05143e-18)
(5.39921 -0.00806495 -1.82149e-17)
(4.81321 0.0891461 5.01205e-16)
(8.00278 0.0348484 -2.49753e-17)
(7.44251 -0.0309287 0)
(7.27737 -0.0590458 -8.01054e-17)
(7.50831 -0.105105 6.27867e-17)
(5.02653 -0.035547 7.82649e-17)
(7.54901 0.133179 9.95312e-18)
(5.3551 0.146292 -8.09238e-17)
(7.78852 -0.154659 -3.702e-17)
(5.03364 -0.0517631 0)
(7.0573 0.0708489 1.86443e-17)
(7.60376 0.194631 -4.81331e-17)
(7.23358 0.282314 -3.16237e-16)
(6.97535 -0.0155654 1.96631e-17)
(7.58683 -0.151564 -2.15834e-17)
(8.03619 -0.208609 0)
(7.68535 -0.120559 -6.63786e-18)
(4.80698 0.0345139 -1.68639e-17)
(8.36079 0.0912834 0)
(7.37426 0.125258 0)
(7.18439 -0.0740995 7.80573e-18)
(4.72302 -0.152157 3.73667e-17)
(8.42452 0.0295602 1.03132e-16)
(7.2116 -0.0619815 -8.21314e-17)
(7.09942 -0.13667 6.1736e-17)
(4.41848 -0.018218 1.07544e-17)
(7.99462 -0.0554521 0)
(6.67459 0.0506868 6.41819e-17)
(6.90859 -0.143147 -1.02519e-16)
(7.77723 0.160304 -1.81889e-17)
(7.82676 -0.0101918 2.42532e-17)
(4.71708 -0.100667 0)
(8.13828 0.0528668 -4.35156e-17)
(7.12415 -0.0689708 2.92643e-17)
(7.01031 0.0802478 -6.28851e-18)
(7.46781 -0.0448036 8.88045e-18)
(7.83966 -0.119504 5.84635e-17)
(7.42461 -0.095027 -3.87886e-17)
(7.33354 0.0663483 5.71984e-17)
(7.24749 0.196424 3.80024e-17)
(7.6725 0.0660402 -1.13569e-17)
(7.51796 0.101953 0)
(5.63189 -0.13885 0)
(7.3194 -0.104851 -4.77083e-17)
(6.92211 -0.0931918 -1.7608e-17)
(8.14494 0.104851 0)
(7.89004 -0.124437 0)
(8.09659 -0.117881 0)
(5.10334 0.0336178 0)
(7.6777 -0.082425 5.18918e-17)
(5.24262 -0.051539 0)
(7.11634 -0.129291 0)
(7.01478 0.0936999 2.8309e-17)
(6.53261 -0.0486332 -1.95961e-17)
(4.4974 -0.512382 -9.28865e-18)
(7.35694 0.000430335 0)
(7.61159 -0.0291452 0)
(7.26634 -0.104365 4.33882e-18)
(3.64081 -0.839512 1.86359e-17)
(7.20491 -0.196285 0)
(7.90021 -0.246324 -1.95185e-17)
(4.52138 -0.104673 -5.30364e-17)
(3.31342 -0.709834 0)
(7.12114 0.124364 -4.41235e-17)
(1.73387 -0.382221 0)
(6.99611 0.0140051 -7.60951e-17)
(7.00703 0.0129426 1.00808e-16)
(7.47447 0.0559327 3.56821e-18)
(3.36151 -0.547104 0)
(7.01147 0.0372324 5.01572e-17)
(6.94197 0.0734973 1.12241e-16)
(7.66699 0.0177292 0)
(7.76245 0.020913 -3.46834e-18)
(7.36715 -0.112819 -4.29672e-18)
(8.13487 -0.118911 0)
(3.78812 -0.639024 1.51497e-17)
(3.67444 0.038552 -3.78496e-17)
(7.12106 0.129842 -4.98599e-17)
(6.98971 -0.336002 0)
(7.41304 -0.214863 0)
(1.61281 -0.229161 5.66741e-17)
(7.25901 -0.0748926 2.85619e-18)
(7.14489 -0.107328 0)
(7.31357 -0.115687 -2.74115e-18)
(6.97289 0.109345 -2.84456e-17)
(7.16152 0.114614 0)
(7.14525 -0.219412 0)
(6.76588 -0.0858053 0)
(6.65393 -0.328825 4.11659e-17)
(7.00362 0.00604438 0)
(6.86803 -0.314 2.60388e-17)
(7.32975 -0.165025 4.11345e-17)
(6.78197 0.193925 0)
(7.05309 -0.0258816 1.30145e-17)
(7.06167 -0.1901 -6.1378e-17)
(7.81749 -0.267655 4.40017e-18)
(7.9668 -0.036144 1.51067e-17)
(6.88198 -0.220494 -4.23979e-18)
(6.98595 0.135433 0)
(6.76914 0.164099 1.33786e-17)
(6.94689 0.117103 -1.50728e-17)
(6.97673 -0.104617 4.08679e-17)
(8.14657 -0.118004 0)
(6.854 -0.0826078 0)
(7.47885 -0.0872766 0)
(7.64932 0.236242 0)
(7.35641 -0.106086 5.5023e-18)
(7.54318 -0.141682 -1.48519e-17)
(7.54414 -0.128072 3.09965e-17)
(7.40342 -0.111316 0)
(7.28531 -0.023225 2.52622e-17)
(7.7027 0.136559 -1.85512e-17)
(7.7517 -0.230325 -9.50222e-18)
(7.99367 -0.18654 -1.03591e-17)
(8.0192 -0.211661 1.02183e-18)
(7.76821 -0.179362 1.92501e-17)
(7.48975 0.175174 5.58633e-17)
(7.81098 0.116554 -4.70983e-17)
(7.74861 0.206356 5.15486e-17)
(7.63981 0.1236 0)
(4.27383 -0.12662 -2.44249e-17)
(3.91103 0.0125893 0)
(7.91732 -0.142688 -1.29144e-17)
(7.83767 -0.220297 2.20983e-17)
(7.89994 -0.162741 0)
(7.94192 -0.185694 -6.79563e-18)
(7.82871 -0.206418 0)
(7.8816 -0.121685 0)
(7.91596 -0.177797 0)
(7.87466 -0.152447 -2.27994e-17)
(7.04133 0.0196965 3.50984e-17)
(6.95922 -0.0557668 -3.55992e-17)
(7.55042 0.185773 -8.89387e-17)
(1.11583 -0.066471 -1.15143e-16)
(1.06491 -0.00950509 1.1907e-20)
(4.92855 -0.0753666 0)
(4.72675 -0.00662955 0)
(7.00791 0.0427571 -4.33329e-17)
(7.96651 0.203654 5.30024e-17)
(7.36093 0.049022 -1.5508e-16)
(6.98017 0.104836 0)
(6.97329 0.0756588 0)
(6.829 -0.0516727 -1.75981e-17)
(6.99844 -0.055751 0)
(7.02914 -0.189371 7.78755e-18)
(6.83504 -0.273215 -6.88143e-17)
(5.17236 -0.0322032 7.33923e-17)
(7.07248 0.139168 -3.99588e-17)
(7.26415 -0.203456 -6.95834e-18)
(7.00699 -0.289921 -1.54465e-17)
(6.31672 -0.380002 -3.23623e-18)
(6.31239 -0.285662 4.01396e-17)
(6.43242 -0.218112 7.5157e-18)
(7.16558 -0.0997571 7.81042e-18)
(7.28317 -0.129028 0)
(7.06518 -0.0226557 -6.56419e-17)
(6.98545 -7.04232e-05 3.9145e-17)
(7.31416 -0.24168 -3.97656e-18)
(6.98082 0.105401 3.10317e-17)
(7.38884 -0.171024 0)
(6.56118 -0.0823202 2.61934e-17)
(6.4255 -0.136053 -7.1568e-18)
(7.26158 0.161634 7.07619e-18)
(7.3627 0.129266 -2.72908e-18)
(7.03854 0.153709 0)
(6.84487 0.18037 0)
(7.37526 0.0548682 2.78717e-17)
(7.61668 -0.0175572 -9.32784e-18)
(7.46873 -0.129039 0)
(6.77282 0.0284421 0)
(7.59854 -0.0348118 0)
(7.53114 0.0593328 3.57051e-17)
(7.16883 -0.0111323 -3.65285e-17)
(7.37091 0.070104 -1.01885e-16)
(6.57584 -0.306749 0)
(7.42501 -0.0733532 0)
(7.19604 -0.108326 0)
(7.32845 -0.0392236 0)
(7.86529 -0.119571 0)
(7.70636 -0.118469 0)
(7.89061 0.0660345 0)
(8.09463 -0.0795213 0)
(4.76394 -0.076993 0)
(7.07051 -0.0957868 0)
(4.86386 1.4035 -2.30143e-19)
(6.2158 2.56338 -6.58907e-19)
(4.73271 0.0913784 1.11998e-18)
(6.66458 2.62143 0)
(2.74279 -1.52846 -1.62873e-20)
(2.66316 -1.50155 1.4462e-17)
(7.01894 -4.26632 6.63783e-18)
(6.78906 0.318099 0)
(6.72437 2.25921 0)
(4.1465 -0.891213 -2.13224e-17)
(2.60459 -1.57084 -1.47576e-20)
(4.58939 -0.884069 1.73366e-18)
(3.01842 -0.572775 0)
(2.75113 -6.15748 5.16219e-18)
(6.76115 -1.35881 0)
(4.60292 -4.65261 -7.95867e-20)
(4.57875 -0.918884 1.95139e-18)
(4.78655 -0.0989725 6.14914e-21)
(6.08672 -4.25943 -2.03934e-18)
(6.16427 -4.24161 -2.02196e-18)
(4.84753 0.204906 3.61658e-19)
(4.83663 0.235264 -4.49432e-19)
(6.72535 0.233716 -8.45798e-17)
(3.47916 -0.0337634 0)
(5.31748 -3.91581 -2.08772e-18)
(5.64918 -3.82136 0)
(1.80662 -0.980418 0)
(4.84717 1.08336 -1.03509e-18)
(5.71239 -4.37922 3.41792e-18)
(6.11608 -3.43597 -2.1552e-18)
(6.41874 1.8761 0)
(4.35193 -1.80162 1.78854e-18)
(4.65566 -0.511025 0)
(5.29724 -1.09601 3.84942e-18)
(6.44951 -2.08271 -1.43346e-17)
(6.29366 -3.6379 -4.11444e-18)
(6.24854 2.91138 3.48151e-20)
(6.33674 2.31187 1.93723e-18)
(6.30583 2.41391 -2.50916e-18)
(2.58336 -1.17456 0)
(2.63564 -1.37697 7.27574e-20)
(2.91174 -1.48952 -1.86914e-17)
(2.81348 -1.43584 -2.53767e-20)
(5.785 -1.77854 -7.54884e-18)
(5.38303 -1.61923 6.41045e-18)
(6.31333 -2.24216 0)
(6.14637 2.50561 2.75794e-18)
(5.46534 -4.54641 -1.46937e-18)
(1.85184 0.784015 -6.21606e-17)
(6.03687 2.88292 0)
(4.39445 -1.62349 0)
(6.99956 -3.60607 1.50944e-17)
(6.51374 1.99739 2.36553e-18)
(6.5658 2.04718 5.53708e-19)
(4.41861 -1.51097 0)
(6.34504 2.62788 -1.11699e-19)
(6.32707 2.6316 1.2429e-19)
(2.95494 -1.40611 9.41525e-18)
(4.16771 -2.43295 2.79875e-19)
(4.07657 -2.6749 2.25298e-18)
(3.90569 -1.08954 4.33696e-17)
(3.694 -1.04985 0)
(3.03745 -0.709206 0)
(3.14782 -0.778814 5.1544e-19)
(5.54495 -4.17594 1.59967e-18)
(3.84598 -0.281203 0)
(4.62997 -0.759844 -4.30961e-19)
(6.89706 -0.426402 1.90431e-17)
(6.31064 2.62023 0)
(6.57613 0.193457 5.70098e-17)
(6.31465 2.1829 0)
(6.35921 2.23593 0)
(5.96686 -4.85824 0)
(0.960579 -0.476059 8.40284e-17)
(6.87198 0.312168 -8.13849e-17)
(2.86784 -0.396121 -9.94126e-18)
(4.72784 -0.373077 1.502e-18)
(4.77637 -0.183019 -7.097e-19)
(5.50425 -4.34312 -9.15435e-19)
(6.14532 -4.78303 -8.01864e-19)
(6.14595 -4.72432 -2.50386e-18)
(6.20355 2.40834 3.92139e-18)
(4.70621 -0.468027 -2.4306e-18)
(4.65273 -0.660347 9.05435e-19)
(5.75882 -4.18513 -1.58345e-18)
(6.43041 -3.97184 0)
(4.53217 -1.11665 0)
(4.55473 -1.04061 0)
(4.49908 -1.22774 0)
(3.07362 0.436421 -1.76186e-17)
(3.76283 -1.74022 9.29483e-18)
(4.13506 -1.34481 0)
(6.11877 0.107801 -1.7083e-17)
(6.26959 2.40045 -6.28431e-19)
(6.2402 2.32656 -2.23638e-18)
(6.28569 2.33493 -2.52626e-18)
(6.22521 2.39274 -5.00852e-18)
(2.89623 -1.63313 -2.10257e-17)
(5.25966 -4.33982 5.99368e-19)
(5.32832 -4.40816 -1.32449e-18)
(6.18012 -4.69369 3.94406e-18)
(6.24059 -3.88609 0)
(4.65025 -0.676493 1.63269e-18)
(6.95238 -3.13736 -4.77021e-18)
(7.00108 -3.39894 -1.02212e-18)
(6.69413 -2.72496 3.83626e-18)
(3.3331 0.114241 0)
(3.19379 0.349603 -1.75204e-17)
(3.17677 0.144673 0)
(6.275 -4.79604 -1.42055e-18)
(6.32065 2.59451 1.36034e-19)
(2.99415 -1.89516 -1.40716e-17)
(2.91813 -1.7067 1.86359e-17)
(3.03095 -1.72148 2.25441e-17)
(2.85151 -1.8862 6.55569e-18)
(6.36729 2.48705 1.17847e-18)
(6.4235 2.45634 -1.61058e-18)
(6.40149 2.43247 3.52107e-19)
(6.40134 2.50076 4.12661e-19)
(4.83796 1.16498 2.01729e-18)
(4.78687 1.33187 -1.192e-18)
(6.8099 0.283954 -2.67897e-19)
(5.99696 -0.698915 -3.5134e-17)
(2.83493 -0.723102 -2.02225e-17)
(2.80911 -0.955338 0)
(6.85962 -3.14193 -5.76233e-18)
(7.53606 -0.457822 -4.03518e-17)
(2.7886 -1.32024 5.88689e-18)
(5.79814 -0.892084 -2.11108e-18)
(7.1292 -0.239992 7.91324e-18)
(2.80314 -0.580064 0)
(2.90565 -0.56976 1.91058e-17)
(2.87106 -0.498952 6.69997e-20)
(2.84613 -0.620054 -5.5178e-18)
(3.55316 -0.0820145 3.23044e-19)
(3.55007 -0.258401 0)
(3.3431 -0.0178035 -6.8905e-18)
(6.34909 2.61531 0)
(6.33777 2.60281 0)
(6.36828 2.61135 2.98236e-19)
(3.25379 -0.445866 0)
(3.08838 -0.456994 3.31616e-17)
(3.0371 -0.112899 0)
(3.05382 -0.332027 -3.58462e-17)
(3.11394 -0.184725 0)
(3.36446 0.579176 -6.53198e-18)
(3.60563 0.271583 3.79073e-17)
(6.1891 0.159458 -6.17213e-17)
(6.73115 2.15897 -9.88018e-19)
(6.30187 2.44897 9.20433e-19)
(6.33818 2.48181 -1.88668e-18)
(6.71646 -0.644157 5.89928e-18)
(6.76151 -0.41361 0)
(1.14141 0.419094 0)
(2.62899 -0.535286 -8.35781e-18)
(6.70423 -3.2857 0)
(6.41138 -3.5006 -1.26087e-17)
(7.12646 -0.259208 -1.85543e-17)
(7.15012 -0.245632 1.47358e-17)
(7.08707 -0.2956 0)
(6.1473 2.55903 1.47516e-18)
(6.17817 2.63106 7.383e-19)
(6.52199 -3.92714 4.27584e-19)
(6.17496 -4.80346 0)
(6.24034 -4.80399 1.84899e-18)
(6.17473 -4.86455 1.95876e-18)
(5.22097 0.223607 1.02121e-16)
(6.51776 -0.507404 -5.50202e-17)
(6.53819 -0.630747 0)
(6.60761 -0.429596 -2.40817e-17)
(5.87865 -4.005 0)
(6.03462 -4.02944 4.19861e-18)
(5.95202 -4.11123 4.53164e-21)
(5.92656 -3.97498 -3.99269e-18)
(4.18558 -0.361259 0)
(3.94053 -0.13029 -2.1567e-18)
(3.86362 -0.333283 -3.30985e-17)
(4.19934 -0.218806 0)
(6.13806 -4.07583 2.10986e-18)
(6.1911 -4.17605 2.20456e-19)
(6.23644 -4.00426 -1.53266e-18)
(4.88233 0.785156 1.64302e-18)
(4.84115 0.63478 0)
(6.02587 -3.54524 0)
(5.79721 -3.7397 -3.82314e-18)
(3.90025 0.410923 -5.38014e-19)
(3.60343 0.775468 -8.43142e-18)
(4.25715 -0.551251 -5.36702e-19)
(4.00714 -0.656534 1.82854e-17)
(4.15533 -0.679689 -1.16625e-17)
(4.18025 -0.448042 1.05549e-17)
(3.7737 -3.43081 -1.67514e-18)
(6.67563 0.254474 1.02765e-17)
(6.66398 0.224984 0)
(6.87997 0.142206 0)
(6.8133 0.175114 5.81835e-18)
(4.7398 1.62795 0)
(4.8218 1.49421 0)
(2.84943 -0.189283 -2.37569e-17)
(2.83918 -0.0733885 1.38731e-20)
(2.76374 -0.213903 1.09493e-17)
(3.33706 -1.24461 0)
(6.27687 -2.09937 0)
(4.47862 2.03069 -8.05248e-20)
(4.65092 1.94277 -1.61415e-18)
(4.74319 1.41097 -1.17784e-18)
(5.17528 -3.97615 0)
(3.11008 -1.17638 9.27466e-18)
(3.19238 -1.04719 1.8235e-17)
(2.97631 -1.13404 0)
(3.52153 -0.513672 0)
(3.77176 -0.344959 4.28609e-17)
(3.60551 -0.309942 -5.26285e-18)
(3.7485 -0.509056 -3.12079e-17)
(3.06134 -1.43564 1.82826e-17)
(3.22667 -1.32561 0)
(3.13005 -1.27534 -1.9218e-17)
(3.18958 -1.44859 0)
(7.63484 -0.401874 1.43547e-17)
(3.63846 -1.40445 0)
(3.43726 -1.2715 0)
(3.60932 -1.2107 0)
(3.4461 -1.42393 1.53096e-17)
(6.65387 -2.50352 0)
(6.7942 -2.31944 -8.20273e-18)
(4.44713 -1.39395 -5.10478e-19)
(4.48839 -1.28696 0)
(4.46479 -1.38574 4.66498e-19)
(4.47634 -1.3027 0)
(6.90629 0.0744937 3.58589e-19)
(6.87143 0.00755983 0)
(6.51659 0.314782 3.36743e-17)
(6.46471 -3.85452 1.77936e-19)
(6.3565 -3.70308 3.7079e-18)
(6.51191 -3.74602 3.3214e-18)
(6.32063 -3.83019 3.98955e-18)
(6.85944 2.12708 0)
(7.25348 0.451573 -2.69402e-17)
(4.46385 -1.54842 1.92217e-17)
(4.55828 -1.26039 -3.52063e-17)
(7.01844 -0.347572 1.57176e-17)
(7.10908 -0.276836 -1.09539e-18)
(7.03544 -0.323534 -1.03247e-17)
(6.84831 1.39032 2.5701e-18)
(3.89075 -0.191488 -3.62746e-17)
(2.04099 -0.18662 0)
(6.08582 -0.499838 -2.36366e-17)
(6.20831 -0.485408 5.41647e-18)
(6.24693 2.97386 -2.41136e-19)
(5.90985 -4.2869 0)
(5.94245 -4.18526 -9.43579e-21)
(6.00644 -4.22508 2.34751e-18)
(5.87407 -4.2121 2.12913e-18)
(4.23938 -1.23608 0)
(4.4613 -0.928112 -6.07251e-18)
(4.26867 -0.975038 0)
(4.46456 -1.16897 3.86947e-17)
(6.90432 0.113827 0)
(6.91403 0.077517 1.40301e-17)
(6.90255 0.0952639 0)
(7.00322 0.0737303 5.33003e-19)
(6.99994 0.0929844 -1.7624e-17)
(7.57892 -0.18185 0)
(7.2459 -0.223259 -4.36803e-18)
(7.38069 -0.223875 4.72545e-18)
(7.4213 -0.179344 0)
(6.63847 0.17986 0)
(6.75199 0.088187 -7.11588e-17)
(6.71875 0.160693 5.11553e-18)
(6.6539 0.129715 4.39545e-17)
(5.68923 -4.32733 -3.69246e-18)
(5.61775 -4.21462 0)
(5.58864 -4.31666 0)
(5.72022 -4.24468 0)
(6.18843 2.49814 1.4483e-18)
(6.21614 2.53466 -7.99303e-19)
(6.21832 2.45846 1.1777e-18)
(2.80449 -1.03383 0)
(2.71089 -1.13396 7.15276e-18)
(2.71832 -1.0543 -7.53536e-18)
(2.80959 -1.13156 -5.78045e-18)
(6.51171 0.207205 -9.47548e-18)
(6.39044 0.236155 3.70695e-18)
(6.45985 0.1794 9.4677e-17)
(2.41043 -0.317634 -2.21483e-17)
(2.05757 -0.0142122 2.39494e-17)
(6.94179 0.149373 0)
(2.0885 -0.18796 -9.95401e-19)
(5.37538 0.0977013 -1.22454e-16)
(6.99572 0.021151 5.01769e-17)
(7.01982 0.076977 2.14395e-17)
(2.47077 -1.22338 -6.89142e-18)
(2.75041 -1.28996 1.21175e-17)
(7.0112 0.118304 6.24853e-17)
(7.01014 0.085634 6.78917e-17)
(7.00877 0.092833 -2.23582e-17)
(6.95702 0.205942 8.77174e-17)
(6.60536 -2.05153 1.54444e-17)
(7.0021 0.246112 0)
(5.94662 -0.088668 1.53018e-17)
(1.64647 -0.274719 -2.83691e-20)
(2.21174 -0.333619 0)
(6.77582 0.235546 -5.91205e-17)
(4.44844 -1.4331 0)
(7.44356 0.0179807 -4.53874e-17)
(6.99913 0.145317 4.6567e-17)
(6.81391 -0.0139358 0)
(7.88726 -0.412089 0)
(7.34083 0.343496 0)
(7.32641 0.417913 3.03324e-17)
(1.77506 0.522462 2.10139e-17)
(7.74758 -0.289862 7.77878e-17)
(7.68813 -0.351738 0)
(7.13931 0.179291 -3.68098e-18)
(6.84931 0.281507 0)
(6.86706 -2.33833 8.24882e-18)
(5.99887 -0.0755801 1.27768e-17)
(7.18758 -0.164107 -2.05421e-18)
(7.12966 -0.211804 2.34489e-18)
(7.17117 -0.191452 3.64496e-19)
(7.58527 -0.232494 0)
(6.6695 -0.463141 -5.99093e-18)
(6.64931 -0.5826 8.27284e-18)
(8.1096 -0.224587 3.68989e-17)
(8.16081 -0.138558 -3.75129e-17)
(8.07816 -0.13271 8.14235e-17)
(6.92665 -0.111565 2.93257e-18)
(6.81528 -0.0897034 2.74437e-18)
(6.97454 0.182634 2.60032e-17)
(6.96974 0.1567 2.55188e-17)
(7.00053 0.023471 2.77178e-17)
(7.00299 0.0372758 6.01501e-17)
(6.4242 -0.389942 0)
(3.62738 0.582293 0)
(6.8174 -0.46505 0)
(6.79813 -0.589754 0)
(7.15702 -0.160993 -6.34039e-20)
(6.98239 0.260161 -2.68364e-17)
(6.17106 -0.0811336 -7.66866e-18)
(7.00279 0.173332 -4.76968e-17)
(6.99219 0.213999 0)
(6.99148 0.195294 1.02064e-18)
(2.07877 0.316171 0)
(6.93599 0.116258 -1.37523e-17)
(6.94588 0.104998 1.35836e-17)
(6.97606 -3.18464 7.02842e-18)
(6.82206 -2.77468 0)
(6.82502 -2.64131 3.00161e-18)
(7.42114 -0.376331 -6.90531e-17)
(7.18042 -0.0541003 0)
(8.28956 -0.0229882 0)
(6.54898 -0.0567254 -2.70542e-18)
(6.50187 -0.0494662 -1.9678e-17)
(6.81345 -0.0529493 2.76483e-17)
(4.60634 -0.27642 6.48862e-17)
(4.81957 -0.275358 0)
(7.52325 -0.395754 -7.93826e-17)
(7.46609 -0.369035 6.26947e-17)
(8.07124 0.0371849 -3.29011e-17)
(8.18259 -0.120084 0)
(6.00957 -0.177349 0)
(7.08224 -0.00400352 0)
(7.18069 0.395806 9.66101e-18)
(7.15899 0.344915 0)
(8.08397 -0.137255 0)
(8.28738 -0.102823 -2.24384e-17)
(1.7349 0.55683 0)
(7.13386 -0.243598 -1.21555e-18)
(7.26843 0.00901909 0)
(4.57414 -0.755423 -3.12751e-17)
(7.22323 0.124525 -2.50757e-19)
(7.23295 0.0821527 9.9267e-18)
(1.03503 -0.087605 -7.96291e-17)
(3.68749 0.418286 1.55439e-17)
(3.53485 0.601064 -9.69718e-18)
(6.79584 0.213186 5.2209e-17)
(6.99726 0.0544658 -2.57385e-17)
(6.99241 0.0731269 -2.70179e-17)
(4.84999 -0.807559 -3.31885e-17)
(6.45626 2.06556 -2.13973e-18)
(6.14482 -0.00396086 -3.55558e-17)
(6.01665 -0.0598767 0)
(2.66796 -1.19638 1.25999e-17)
(2.69489 -1.2923 -1.27703e-17)
(6.65946 0.0742538 -4.4146e-19)
(6.55059 -0.00954688 7.47123e-17)
(6.65016 0.00569837 0)
(6.99944 0.0944597 5.55252e-17)
(7.00251 0.127121 1.97799e-18)
(2.60977 0.683947 0)
(6.96411 0.250921 -5.57593e-17)
(6.6035 0.240143 -5.56871e-17)
(6.56998 0.31207 -3.3265e-17)
(6.86353 0.235249 1.02108e-16)
(6.90204 0.236421 -7.35053e-17)
(6.91937 0.200169 -2.95544e-17)
(7.30111 0.0564189 -5.5537e-17)
(6.26549 -0.0302584 2.42161e-17)
(6.38348 0.0339052 -5.96239e-17)
(6.16351 -0.196919 -1.37561e-17)
(6.28073 -0.112203 -8.42377e-17)
(7.5192 0.00930589 0)
(7.66916 0.0757636 -2.50662e-18)
(7.17933 -0.1418 -1.95574e-17)
(7.8766 -0.00201144 4.9739e-17)
(6.5552 2.13879 1.37411e-18)
(6.98122 0.138995 4.25777e-18)
(7.06904 -0.320777 0)
(7.10505 -0.271345 5.53143e-18)
(3.9339 -0.297139 0)
(4.20302 -0.332211 7.35069e-17)
(7.46981 0.190225 -4.99995e-17)
(7.82456 0.158098 -2.20957e-17)
(7.52474 0.119528 -7.86645e-18)
(7.43905 0.142203 5.56607e-18)
(5.64236 -0.140605 0)
(5.44324 -0.176084 0)
(3.40718 -1.51707 -2.12928e-17)
(3.20762 -1.527 0)
(3.12805 -1.69298 -1.8038e-17)
(2.76815 -1.65051 -1.579e-17)
(7.01664 0.0543617 -8.16307e-18)
(6.73025 0.200165 0)
(6.81073 0.188666 0)
(7.5322 0.0242781 0)
(7.86479 0.0298237 -6.43601e-17)
(4.02468 0.210911 -2.88529e-17)
(4.21901 0.165872 2.43741e-17)
(8.35354 0.0849956 -1.52289e-17)
(8.22131 0.149838 -1.88955e-16)
(8.07742 0.0466541 -7.04774e-17)
(7.1438 0.0787582 0)
(7.70555 0.235666 0)
(7.03291 0.0760255 0)
(7.42017 -0.0546292 0)
(7.02904 0.184003 -4.73787e-16)
(4.9109 0.0301722 5.33664e-16)
(7.46113 0.171835 8.90224e-17)
(7.00174 -3.9539 0)
(7.03617 -3.74254 0)
(6.98823 0.0255746 -2.65189e-17)
(6.95201 0.0475058 -6.17842e-17)
(7.02179 0.0422482 2.03488e-17)
(6.93676 0.0615925 8.99588e-17)
(7.9166 -0.259373 6.30734e-17)
(4.98087 -0.0536891 -4.55672e-17)
(5.14843 -0.117738 -5.83482e-17)
(5.31759 -0.0274534 9.15922e-17)
(6.89367 0.123859 0)
(6.88163 0.147054 0)
(6.85171 0.182031 0)
(6.87318 0.17362 -3.01722e-17)
(6.83126 0.215157 0)
(7.00123 0.0630123 4.13044e-17)
(7.31784 -0.0801216 5.59844e-17)
(7.03114 -0.136138 -4.76547e-17)
(7.58709 -0.364729 1.07212e-16)
(7.67752 -0.298678 -7.14407e-17)
(7.65558 -0.278463 -6.5944e-17)
(7.63278 -0.263489 0)
(7.46506 -0.27875 2.50671e-17)
(7.53768 -0.30319 -2.49948e-17)
(4.7807 -0.0794255 -2.02866e-17)
(6.92265 -0.0368938 -6.78886e-18)
(7.83545 -0.231624 2.30653e-17)
(4.9606 -0.430928 0)
(5.13666 -0.375855 -2.59535e-17)
(5.34249 -0.380602 -4.47939e-17)
(3.51887 0.51237 8.64547e-18)
(3.55615 0.578637 7.54663e-18)
(6.39052 0.094599 2.94209e-17)
(6.29593 0.124143 0)
(3.41965 -0.877289 -3.21396e-18)
(3.33431 -1.04235 0)
(7.69762 -0.0992412 -1.18123e-17)
(7.85243 0.0320609 0)
(7.77891 0.111856 2.417e-18)
(4.55408 1.22962 3.01798e-18)
(4.49702 1.20259 3.03133e-20)
(4.6675 -3.53226 3.5025e-19)
(4.67579 -3.61561 -3.18942e-19)
(2.57501 -0.891463 0)
(4.56993 2.32299 -1.04541e-18)
(6.98948 0.406232 -3.545e-20)
(5.70956 1.78125 0)
(5.96905 1.58845 6.99054e-20)
(5.81665 1.52411 -1.78072e-19)
(2.46742 0.424743 0)
(5.62313 -2.67198 -2.56392e-19)
(8.76923 1.06725 -8.9449e-19)
(7.14305 0.611605 1.65473e-19)
(8.20004 -0.264523 1.84757e-18)
(6.35054 3.30326 -1.80503e-20)
(2.58289 0.445541 4.23146e-18)
(4.93607 -4.48082 6.89142e-19)
(6.66803 -4.95428 0)
(4.57462 -0.839936 0)
(8.71281 1.0612 0)
(4.90835 -4.36108 0)
(4.94832 -4.40391 0)
(6.02699 2.61211 5.23008e-20)
(6.03305 2.61332 0)
(5.93313 1.13737 1.19635e-19)
(6.32932 1.30897 -9.9474e-21)
(6.33347 1.35448 1.13503e-20)
(5.72001 1.66983 1.13064e-19)
(6.58844 -1.17457 5.90338e-20)
(6.61434 -1.26403 2.65894e-20)
(5.57247 -4.97598 7.16208e-19)
(5.83448 1.50272 -1.00631e-20)
(5.85829 1.44464 0)
(6.81728 1.32093 7.83799e-20)
(6.6235 1.12411 -6.90551e-21)
(6.63869 1.15529 -8.25853e-20)
(6.37953 1.34127 0)
(6.19486 -2.54703 0)
(6.19 -2.48334 5.68948e-21)
(4.06332 -2.78212 1.3122e-18)
(5.91014 1.73657 8.68991e-20)
(5.90389 1.6972 -2.35797e-20)
(5.0025 -3.9444 0)
(1.51097 -2.02301 3.49217e-17)
(4.48287 2.16091 7.11759e-19)
(4.53788 2.20922 -1.48357e-20)
(2.4915 0.0249132 4.48633e-18)
(3.6816 -1.50467 -1.9895e-17)
(5.92373 2.61597 5.83137e-19)
(7.93555 0.866692 3.07473e-19)
(6.31379 -5.06534 -1.54492e-19)
(2.29167 -0.931736 -1.60167e-18)
(6.41399 2.56206 0)
(6.50852 2.66909 5.10647e-21)
(5.7769 -2.86065 1.17453e-19)
(3.8078 1.54906 -2.04335e-20)
(6.61585 -4.87479 -2.28918e-19)
(6.62871 -4.85162 6.23888e-19)
(5.77252 -1.91099 0)
(6.54752 -1.54583 0)
(6.49279 -1.92892 -5.48666e-20)
(6.68866 3.00175 -1.44714e-19)
(6.38483 1.02758 -6.65854e-21)
(6.61003 -1.66812 4.11279e-21)
(6.21105 2.58058 0)
(5.23591 1.43578 0)
(7.57808 0.368192 0)
(5.65482 -2.8079 -7.43361e-20)
(3.37292 -4.21883 -4.47187e-20)
(3.51915 -3.97238 9.49224e-19)
(6.83764 -0.835259 0)
(6.85419 -0.944393 8.10343e-18)
(6.0052 -5.03465 -7.02943e-19)
(6.6404 2.84903 -4.96984e-20)
(4.12055 -2.348 8.15873e-19)
(7.07889 0.928306 -2.86849e-19)
(5.55892 -5.03678 0)
(6.29823 3.34192 0)
(6.24197 3.30525 -1.75865e-19)
(5.96297 2.67083 0)
(5.05904 -3.29046 -4.28843e-18)
(6.39433 3.70132 0)
(6.50596 2.89768 -2.52862e-21)
(6.03965 1.64008 0)
(4.93119 1.44672 4.13266e-19)
(4.92185 1.39119 2.03497e-19)
(5.77672 1.17612 3.27285e-19)
(6.98997 0.989402 0)
(6.98679 1.03586 0)
(7.07246 0.976719 2.81654e-19)
(5.51916 -2.7026 8.52612e-18)
(6.26436 1.62812 8.44198e-21)
(7.18894 -0.338596 0)
(7.16853 -0.249759 -5.63452e-20)
(2.26835 -1.96363 5.48115e-18)
(6.15331 1.40155 -2.37525e-20)
(6.17262 1.42899 0)
(2.65196 -0.136196 6.58929e-18)
(2.71589 0.0265643 0)
(7.53232 -0.0978062 -5.07659e-19)
(7.52521 -0.0405507 -3.40237e-19)
(6.06804 3.33603 -2.31447e-20)
(6.73718 -4.84368 2.7883e-18)
(4.55988 -1.0111 1.04916e-18)
(6.5207 2.61519 -1.47708e-20)
(6.51545 2.80686 1.6479e-20)
(6.2972 2.592 1.7086e-18)
(6.77772 -0.623664 -1.00735e-20)
(2.60496 -4.36545 6.72028e-18)
(6.27432 1.39424 3.67202e-20)
(6.26773 1.359 -1.90846e-20)
(7.26221 3.21463 3.20474e-19)
(6.58247 -1.72159 0)
(6.51331 -1.85201 3.56429e-20)
(5.2624 -4.93224 1.03858e-18)
(1.60018 -1.36794 -6.87843e-18)
(4.88664 2.02065 1.72803e-18)
(7.22952 -0.66879 5.13548e-19)
(5.1851 -3.07108 -1.72257e-19)
(5.19077 -3.14497 4.29295e-19)
(4.70395 2.07334 -7.69358e-19)
(4.60311 2.18351 -1.05043e-18)
(6.61044 -1.5751 -3.58507e-21)
(6.59178 -1.52714 2.72519e-20)
(7.01051 -4.35948 0)
(7.47099 -4.85151 0)
(6.68606 -0.558861 1.0569e-19)
(7.099 -0.239505 4.40343e-19)
(7.44472 1.05239 0)
(4.44474 1.29089 -2.94804e-18)
(6.63036 1.33182 0)
(7.08886 -3.27385 6.28491e-19)
(2.69751 -2.36206 1.86941e-17)
(7.1741 -4.33317 0)
(6.29429 2.55507 -8.25512e-20)
(4.86688 -4.40708 -2.45882e-19)
(4.87119 -4.43924 1.06688e-18)
(6.16829 2.62372 0)
(6.18926 2.60908 -4.0027e-19)
(6.76559 2.31874 0)
(4.89946 0.106844 0)
(5.90492 1.04238 -7.14462e-20)
(8.3732 -2.56926 1.23458e-18)
(5.46708 -2.15313 0)
(6.08076 -2.50887 0)
(5.99081 1.40644 -7.63263e-20)
(6.73998 -4.39897 9.90826e-20)
(6.40898 -0.839901 1.96274e-17)
(6.3383 -1.36825 -2.03736e-20)
(7.18749 -4.95212 -2.02645e-18)
(7.24409 -4.92237 0)
(5.78289 2.08024 0)
(2.12839 -4.00205 1.04467e-17)
(3.93776 0.778924 -1.59638e-18)
(6.53006 3.43868 1.35733e-19)
(5.95545 -2.49204 8.51718e-20)
(5.94734 3.18024 0)
(4.89133 1.86732 6.32935e-19)
(4.95471 1.79992 1.15382e-18)
(6.42499 -0.679954 -5.90508e-20)
(5.6849 1.80489 2.08691e-19)
(6.42433 -1.67833 -7.80071e-21)
(6.43776 -1.76179 2.62942e-20)
(7.01017 1.30476 -1.12276e-19)
(5.94987 1.0827 -1.28359e-19)
(6.15672 1.32191 0)
(6.20882 1.29309 3.19801e-20)
(4.59444 -3.63856 0)
(4.45349 -3.68089 0)
(4.612 -0.793192 0)
(2.63533 0.558352 -3.46363e-18)
(2.59706 0.522943 0)
(2.6069 0.668036 0)
(6.4525 0.00483318 2.54601e-20)
(6.6179 2.82084 1.28445e-20)
(7.27361 3.25927 1.84846e-19)
(4.36141 -1.80494 0)
(4.34714 -1.83838 4.60431e-19)
(5.23887 1.39129 0)
(6.40086 2.57059 6.57906e-21)
(4.82963 2.24098 0)
(2.4956 -0.886765 4.55412e-18)
(4.95806 0.0742642 1.39944e-18)
(4.97903 0.0489132 -6.0641e-20)
(7.0346 0.812349 -2.59418e-19)
(6.80262 0.653129 8.37302e-18)
(6.68954 2.84017 3.60754e-19)
(4.94054 0.282728 0)
(4.92241 0.193227 0)
(6.91345 1.71445 -2.14613e-20)
(6.3661 2.56551 0)
(6.41736 -5.0326 0)
(5.93507 -0.614926 -1.04128e-20)
(6.57896 -5.01947 -7.66676e-19)
(5.84976 1.65288 -8.63015e-20)
(5.845 1.60279 1.29561e-19)
(4.59169 -0.731488 -6.28879e-19)
(6.18909 -1.86267 3.40319e-20)
(6.68426 -5.21288 -3.47743e-19)
(6.39325 2.54641 4.4615e-20)
(6.43611 -4.91643 4.29947e-19)
(6.24745 0.820306 7.12364e-21)
(6.20994 0.828007 -5.87211e-20)
(4.75185 2.18292 -1.45821e-18)
(5.09263 1.297 0)
(5.09871 1.37014 3.47028e-21)
(4.46272 -4.95933 5.48645e-19)
(6.47829 0.388388 0)
(6.26307 2.53399 2.0665e-19)
(5.64103 -5.00725 0)
(5.63659 -5.03917 7.48495e-19)
(5.00868 1.00573 -1.68018e-19)
(6.07622 1.47155 0)
(6.12461 1.47257 0)
(6.34403 2.52811 2.55263e-20)
(6.47009 2.57133 2.74884e-20)
(6.50619 2.59031 2.53253e-20)
(4.45041 -5.53933 -2.89908e-19)
(7.25672 0.695582 -2.24066e-19)
(7.35792 0.661717 0)
(8.30185 -2.61048 2.4176e-18)
(6.55251 -1.70318 -4.3506e-20)
(6.53926 -1.6196 -1.7844e-20)
(6.51369 -1.77916 9.56244e-20)
(5.65312 0.850692 5.16407e-20)
(5.6575 0.944004 0)
(5.79031 0.654461 0)
(5.78173 0.578162 0)
(6.52529 -0.602444 0)
(6.5351 -0.547372 0)
(7.80575 1.06281 4.55363e-19)
(5.58457 3.36262 1.925e-19)
(6.59291 2.9999 9.6717e-20)
(6.63242 2.98611 0)
(7.05388 -4.40103 4.50673e-18)
(5.72211 -0.390652 0)
(7.21716 -4.79375 0)
(5.0581 0.836385 5.35253e-19)
(6.39774 -4.98161 -4.82539e-19)
(6.32431 -5.00814 9.97338e-19)
(7.16883 -4.61247 2.59835e-19)
(5.76442 -2.10067 2.73407e-19)
(6.80475 -5.04048 0)
(6.32925 2.53524 5.25609e-20)
(6.29439 2.52861 0)
(7.15642 -1.66698 -3.11211e-19)
(7.06701 -0.974395 -4.81301e-19)
(6.22083 1.48828 1.62384e-20)
(4.83885 -0.0386049 0)
(6.85448 -5.04047 5.78235e-19)
(5.76561 2.76441 0)
(5.70213 2.74565 2.60346e-18)
(6.43408 -5.06894 -1.13665e-19)
(5.03541 0.507155 9.69881e-19)
(7.48343 1.12067 0)
(1.66468 -1.71624 0)
(6.4886 1.69161 0)
(6.40516 1.79224 0)
(5.85144 -2.09991 4.18322e-19)
(6.04723 1.69456 2.60902e-20)
(6.00397 1.70761 -8.24997e-21)
(6.39911 2.70616 1.72163e-19)
(6.37232 2.71957 -2.68013e-20)
(6.071 1.06054 0)
(6.11172 2.47628 -2.87433e-18)
(8.15006 0.629283 0)
(8.02467 0.636726 1.22297e-18)
(5.79209 1.59222 0)
(6.02778 2.95369 0)
(6.05192 3.08261 4.534e-20)
(6.3098 -1.17611 7.43877e-20)
(6.44895 3.09056 -4.36416e-20)
(6.43259 3.21233 0)
(6.1324 -1.68932 -1.99901e-19)
(6.8658 -0.750492 1.0967e-19)
(6.97516 -0.627613 3.18344e-19)
(5.98534 2.64832 -1.904e-19)
(6.01926 2.62322 0)
(6.71847 1.08149 -3.30404e-21)
(7.71675 0.894068 -2.68899e-20)
(7.72956 0.95577 2.50563e-20)
(6.04257 -2.00542 -2.71678e-19)
(5.97102 -2.12775 0)
(2.04469 -1.09731 0)
(5.20504 -4.66627 -8.27136e-19)
(5.02427 -4.59213 9.68691e-19)
(6.43286 -2.06958 -1.30791e-20)
(2.84683 0.498958 0)
(6.63491 2.88031 -7.65235e-21)
(6.6082 2.88629 4.02303e-20)
(4.78654 -4.45449 0)
(4.64247 -4.33402 -2.22733e-18)
(6.12948 -1.97394 -2.13353e-20)
(6.1474 -1.88065 8.82004e-20)
(6.06627 -1.96304 2.41623e-19)
(4.92377 0.910655 1.67051e-18)
(4.88465 1.04129 9.82138e-19)
(6.45381 -4.85724 1.51574e-18)
(6.70391 0.758634 1.06187e-19)
(6.0861 0.949625 -5.50517e-21)
(6.33559 -4.9781 0)
(6.30891 -4.96037 0)
(6.37269 -4.96294 0)
(3.59663 -3.77727 8.15104e-19)
(3.61137 -3.83153 2.28075e-18)
(4.51304 -1.0073 0)
(6.09258 -1.45018 -7.46516e-20)
(8.19984 0.0119903 -2.10982e-19)
(8.23138 -0.0237775 0)
(5.7171 -1.32892 -3.009e-19)
(5.72635 -1.40829 1.93501e-19)
(6.70785 -4.87176 -1.84975e-18)
(6.67393 -4.86208 1.54766e-18)
(6.73313 -4.90195 0)
(5.03048 1.55875 6.87695e-19)
(5.01415 1.68818 5.33326e-19)
(3.80206 -3.69681 0)
(6.52445 -4.9859 -9.78522e-19)
(6.6302 3.1606 -3.03558e-20)
(5.93338 2.32596 4.23763e-18)
(5.31477 -4.87005 7.84716e-19)
(5.31897 -4.90482 0)
(2.57558 -3.22275 -8.43571e-18)
(7.28884 -0.449727 5.3432e-19)
(7.06708 0.394375 3.35894e-19)
(7.21142 0.338976 1.14831e-19)
(5.87047 1.5477 -2.00955e-19)
(2.53184 -0.109482 -6.4999e-18)
(6.39972 3.23242 0)
(6.48422 3.22153 0)
(6.6943 -0.740663 -1.10193e-17)
(6.75328 -0.840859 0)
(6.55728 -3.38167 0)
(7.36244 -0.161461 -5.20701e-19)
(7.34049 -0.0874931 7.72975e-19)
(7.00324 -0.891639 0)
(6.93862 -0.868156 -1.54811e-19)
(6.25024 2.57628 8.23403e-20)
(6.23554 2.57722 1.32953e-18)