/*--------------------------------*- C++ -*----------------------------------*\
  =========                 |
  \\      /  F ield         | OpenFOAM: The Open Source CFD Toolbox
   \\    /   O peration     | Website:  https://openfoam.org
    \\  /    A nd           | Version:  6
     \\/     M anipulation  |
\*---------------------------------------------------------------------------*/
FoamFile
{
    version     2.0;
    format      ascii;
    class       volScalarField;
    location    "700";
    object      nut;
}
// * * * * * * * * * * * * * * * * * * * * * * * * * * * * * * * * * * * * * //

dimensions      [0 2 -1 0 0 0 0];

internalField   nonuniform List<scalar> 
29874
(
0.251569
0.207229
0.121575
0.155394
0.17859
0.241509
0.217319
0.141058
0.152905
0.141856
0.268059
0.258022
0.182128
0.262836
0.266469
0.283371
0.175296
0.277588
0.118827
0.141929
0.14066
0.143786
0.140549
0.153392
0.144474
0.177003
0.220125
0.143832
0.233406
0.233842
0.229641
0.195465
0.19525
0.220579
0.151508
0.157995
0.14226
0.162891
0.164067
0.2003
0.13991
0.139659
0.145189
0.133085
0.191338
0.160724
0.178012
0.244889
0.238963
0.239748
0.193953
0.291555
0.267782
0.279281
0.199669
0.192902
0.134876
0.169831
0.166093
0.172036
0.163758
0.149107
0.14748
0.167406
0.123467
0.189814
0.238364
0.17638
0.262061
0.283275
0.154933
0.148353
0.144378
0.109378
0.285181
0.231052
0.232291
0.226639
0.182912
0.164774
0.192398
0.111011
0.138378
0.146602
0.0953108
0.109378
0.148776
0.140867
0.188113
0.163308
0.0700786
0.13952
0.138676
0.145173
0.134068
0.138283
0.135888
0.0981718
0.0611885
0.108853
0.150862
0.138584
0.138843
0.167716
0.211654
0.0632333
0.0754649
0.154638
0.15882
0.144405
0.0746911
0.19595
0.205329
0.138583
0.138579
0.138829
0.134806
0.150768
0.000250042
0.142256
0.139813
0.178272
0.129611
0.115079
0.136194
0.138657
0.153202
0.146944
0.142094
0.135076
0.140011
0.137124
0.150533
0.143223
0.14358
0.143291
0.14626
0.135291
0.14376
0.233446
0.200134
0.171626
0.278082
0.169531
0.149489
0.152045
0.170737
0.182885
0.139762
0.276792
0.246918
0.240997
0.294627
0.122374
0.135046
0.140123
0.150277
0.162003
0.183722
0.18525
0.166978
0.181117
0.222222
0.163005
0.215864
0.190005
0.171822
0.150265
0.149392
0.154362
0.193927
0.172957
0.164432
0.0922183
0.0807287
0.154973
0.14809
0.000286395
0.147859
0.145081
0.000209639
0.000185816
0.160508
0.143124
0.14103
0.158717
0.13834
0.138693
0.140689
0.13866
0.138543
0.190265
0.144966
0.139494
0.170647
0.143285
0.141886
0.154908
0.000441052
0.000462321
0.152171
0.1506
0.176737
0.163722
0.141046
0.138978
0.140637
0.216556
0.146763
0.140061
0.142447
0.145686
0.133876
0.141724
0.142951
0.146182
0.145639
0.142553
0.146312
0.152939
0.235801
0.197247
0.197853
0.162357
0.139718
0.145996
0.151418
0.149337
0.161354
0.139124
0.139987
0.140025
0.137033
0.130289
0.144564
0.146603
0.13534
0.17056
0.159354
0.195963
0.1987
0.00663391
0.0420525
0.101835
0.107581
0.0377526
0.0356436
0.0608172
0.131791
0.0728866
0.0822805
0.127067
0.096921
0.0659238
0.103172
0.0514207
0.0721275
0.000535124
0.0706026
0.0721479
0.0533424
0.0650266
0.0721487
0.0635642
0.0661924
0.0658994
0.0676945
0.11552
0.111945
0.000325193
0.0426706
0.0404111
0.114936
0.0919288
0.108591
0.0798914
0.0371989
0.00074913
0.103912
0.0970196
0.0954879
0.126694
0.126543
0.121991
0.121712
0.0965386
0.125273
0.125425
0.0522624
0.0558059
0.0845395
0.0882888
0.0896897
0.0624322
0.063643
0.0788549
0.078693
0.0464421
0.10557
0.10659
0.1157
0.0502696
0.117375
0.0482845
0.0914327
0.0890562
0.0455109
0.127693
0.041734
0.00501852
0.0642339
0.0648803
0.041349
0.0442691
0.0380634
0.0724729
0.0739474
0.0880789
0.114195
0.112005
0.0670809
0.0725659
0.0405458
0.0457993
0.110518
0.108443
0.111191
0.138254
0.0783575
0.0787604
0.136138
0.136557
0.057867
0.0539252
0.0676644
0.0565416
0.11136
0.112826
0.112982
0.111348
0.0411367
0.033915
0.0441313
0.0479894
0.0461723
0.0458899
0.116363
0.116446
0.0696158
0.0904647
0.128316
0.124451
0.0728514
0.0657006
0.0819985
0.105253
0.0528978
0.0532908
0.108256
0.000313846
0.0642835
0.0277228
0.0659803
0.0452739
0.0440981
0.0882228
0.0891161
0.0867554
0.132369
0.0605275
0.0560983
0.0596513
0.0563604
0.139573
0.131216
0.0627351
0.0704699
0.0686768
0.0628714
0.0725977
0.0395187
0.0395528
0.120528
0.131314
0.110522
0.110454
0.13293
0.113606
0.115182
0.112367
0.0677053
0.0659634
0.0382803
0.0648922
0.0658447
0.066826
0.0656363
0.0676276
0.064458
0.138132
0.0667666
0.0679067
0.067726
0.126813
0.122676
0.130481
0.0476847
0.0505957
0.0476554
0.0501734
0.0896155
0.0820797
0.0853292
0.0870086
0.136874
0.0300789
0.0380353
0.0413599
0.037558
0.0456681
0.0453073
0.0427602
0.0815789
0.069741
0.0863586
0.0827962
0.0809994
0.0885776
0.0965895
0.0962288
0.0624503
0.062537
0.0646868
0.0603598
0.0513543
0.0629456
0.058583
0.0459006
0.055232
0.0690164
0.0767944
0.0709288
0.0737818
0.0521613
0.0487469
0.139423
0.140225
0.138138
0.136837
0.140616
0.0518991
0.0551511
0.0491399
0.0793631
0.0899578
0.0843637
0.0609944
0.0623342
0.0638693
0.0599232
0.0674321
0.0668819
0.0669062
0.0671557
0.072126
0.0717735
0.0689445
0.077321
0.151004
0.144066
0.147639
0.148166
0.0654428
0.113645
0.104923
0.103877
0.107282
0.0485295
0.0447211
0.0521959
0.0949102
0.0610109
0.0672541
0.064569
0.0633385
0.138245
0.0433497
0.0407839
0.0405436
0.0432403
0.165827
0.000235445
0.137255
0.19381
0.000516806
0.138571
0.168056
0.139512
0.139536
0.139565
0.17019
0.128712
0.138106
0.138856
0.115115
0.134785
0.133025
0.13849
0.136662
0.133165
0.138552
0.138199
0.116404
0.138745
0.138504
0.00411114
0.139174
0.142188
0.000205505
0.138379
0.138837
0.140405
0.115289
0.140138
0.131198
0.133881
0.13523
0.139359
0.132169
0.134368
0.127284
0.152366
0.128719
0.124293
0.133719
0.129288
0.138807
0.13061
0.127534
0.121647
0.100387
0.0999813
0.000213487
0.00609088
0.157563
0.166403
0.138507
0.103157
0.105671
0.139344
0.134022
0.139836
0.139643
0.138298
0.0673383
0.0768546
0.078784
0.123721
0.139239
0.22412
0.126542
0.108271
0.104987
0.106745
0.138682
0.0125237
0.131343
0.132743
0.100555
0.10657
0.0389284
0.148745
0.140515
0.235285
0.203026
0.138325
0.138521
0.138542
0.0955012
0.158136
0.146269
0.128472
0.126661
0.145521
0.118776
0.120518
0.116422
0.139816
0.127094
0.137245
0.133777
0.158594
0.147553
0.0747505
0.0692826
0.118434
0.119902
0.143378
0.140273
0.000721713
0.149728
0.181872
0.142239
0.140378
0.140033
0.139307
0.139843
0.126679
0.134416
0.1392
0.0556911
0.0555962
0.0593935
0.139114
0.138246
0.138439
0.138049
0.13965
0.143235
0.147522
0.115725
0.0374516
0.139521
0.138154
0.145632
0.153718
0.0496156
0.0449959
0.122044
0.118997
0.161263
0.218785
0.159324
0.177566
0.060151
0.0616345
0.11056
0.114432
0.117836
0.0850346
0.091237
0.13789
0.137708
0.137436
0.170681
0.141032
0.138788
0.138759
0.134015
0.135789
0.139103
0.13857
0.132715
0.133165
0.131066
0.139766
0.136978
0.145686
0.149288
0.000427686
0.00484816
0.117108
0.113116
0.122234
0.0635223
0.0592426
0.167993
0.170237
0.158045
0.00531083
0.00623281
0.105988
0.0483965
0.135755
0.051737
0.0931306
0.0326808
0.0599288
0.0616649
0.082882
0.0819807
0.0809206
0.0856568
0.0853993
0.093686
0.0946018
0.113029
0.0508115
0.0919502
0.0531801
0.0800744
0.0998179
0.099357
0.0741457
0.0740035
0.0789789
0.0278445
0.00308642
0.0307029
0.00632047
0.00406933
0.0696963
0.063364
0.0629583
0.0951973
0.0385764
0.0687516
0.0247343
0.0637778
0.0443828
0.113228
0.0627653
0.0617125
0.0617121
0.0473657
0.0629625
0.0248727
0.0300625
0.0774855
0.0343799
0.0611778
0.0630934
0.0929459
0.105422
0.0445721
0.0656693
0.0959143
0.0463335
0.0957018
0.0961422
0.0788164
0.078287
0.0655413
0.0663448
0.0268196
0.0868216
0.0858143
0.0140018
0.0998841
0.0333297
0.00154785
0.0646655
0.0978959
0.0574038
0.00150077
0.00130109
0.104769
0.0865139
0.0145555
0.00429252
0.0908164
0.0915336
0.0622332
0.0669894
0.068188
0.0893925
0.098287
0.055177
0.038513
0.0402576
0.0852982
0.108122
0.106906
0.0396757
0.0361926
0.0328385
0.0320781
0.0897392
0.0872175
0.0579688
0.0633401
0.035444
0.0806133
0.0138907
0.0535361
0.0565062
0.0931979
0.0984111
0.0635472
0.100427
0.0432165
0.0484296
0.105191
0.0762582
0.0739107
0.104301
0.0669833
0.0762063
0.105491
0.0621534
0.0501465
0.0483475
0.0915705
0.0930364
0.0934843
0.0139761
0.0585643
0.00140506
0.0410373
0.0887497
0.104904
0.0788871
0.0739955
0.0714109
0.0697066
0.0532141
0.088938
0.0103638
0.0559556
0.0962664
0.0970571
0.118459
0.118374
0.0462361
0.0464884
0.0942886
0.0779283
0.0833056
0.0591439
0.0647052
0.108412
0.0889156
0.0173097
0.0591914
0.0290635
0.0660285
0.0915505
0.0948731
0.10008
0.101392
0.0276801
0.0306244
0.103544
0.0340904
0.0345618
0.0771667
0.0750027
0.0727218
0.0601096
0.0590532
0.0854769
0.0846188
0.0886421
0.0340694
0.107346
0.109086
0.109913
0.0697227
0.0650031
0.0516507
0.0475365
0.105085
0.0945097
0.0946392
0.0338332
0.0325338
0.0319361
0.0741934
0.114994
0.108929
0.116886
0.0995037
0.0839083
0.0878422
0.0683822
0.0814243
0.0876928
0.0550651
0.0452746
0.0415185
0.115921
0.0877885
0.0509313
0.127249
0.0476923
0.0447909
0.0459195
0.0505256
0.0396511
0.0962595
0.0923439
0.019314
0.0838703
0.0427266
0.0846331
0.0830244
0.0801646
0.0768817
0.0721121
0.0743525
0.0319434
0.085305
0.0862348
0.0829884
0.0821247
0.083652
0.0638193
0.0972426
0.0118516
0.0684343
0.0829397
0.0841465
0.0248722
0.0238538
0.0857267
0.0672993
0.0910206
0.0988674
0.0870714
0.104547
0.0507261
0.0922649
0.0787406
0.0222551
0.0677534
0.102664
0.0952933
0.0947456
0.0945789
0.0995644
0.0929706
0.0314869
0.0981507
0.0999594
0.0511414
0.0707294
0.0660318
0.0505861
0.0423479
0.0905477
0.0562219
0.0466679
0.0312598
0.0328049
0.00528614
0.0675738
0.0671914
0.0698938
0.0243646
0.0821008
0.080623
0.103354
0.0640963
0.0561867
0.0523743
0.111516
0.0581554
0.0661332
0.0429905
0.0592691
0.126182
0.0974041
0.0814905
0.0749386
0.104463
0.10424
0.104855
0.0779744
0.0322421
0.105772
0.100913
0.0151595
0.100536
0.0386103
0.066634
0.0629083
0.0762031
0.106244
0.0543019
0.0527462
0.0662425
0.0047044
0.0521515
0.0374814
0.0237933
0.0186322
0.0773466
0.111905
0.0745292
0.0768733
0.0743347
0.0552837
0.103057
0.102296
0.100554
0.100679
0.0888102
0.0866726
0.0578052
0.0608826
0.0560003
0.0727728
0.0705646
0.0500863
0.101555
0.101382
0.0714513
0.0740849
0.0527278
0.0527707
0.0111709
0.00816665
0.0505048
0.0479754
0.0442098
0.115535
0.109578
0.0561412
0.0532615
0.0519452
0.0330983
0.0298605
0.0739813
0.0535051
0.059358
0.0756598
0.0407844
0.0960815
0.0915634
0.101636
0.101029
0.0998549
0.0806847
0.105925
0.103254
0.0919765
0.0840851
0.0364379
0.0380343
0.031794
0.0772397
0.0630193
0.0551799
0.0578049
0.0662429
0.10307
0.10413
0.104171
0.076829
0.0655694
0.0674826
0.0834448
0.0812064
0.0985081
0.0986189
0.0608259
0.0715197
0.0749011
0.092339
0.0940389
0.0558857
0.0531343
0.0786467
0.0774982
0.0781319
0.0777554
0.0869148
0.0892361
0.0856384
0.0882127
0.0845259
0.11126
0.071644
0.0414606
0.0010735
0.0729681
0.0550233
0.0531651
0.101874
0.100567
0.102351
0.0921897
0.0915515
0.0929161
0.0412958
0.0766427
0.0745362
0.0778691
0.0812467
0.0808781
0.0797163
0.0792632
0.0837813
0.0858881
0.114575
0.0117359
0.109189
0.0366176
0.0915427
0.0879534
0.0390448
0.122287
0.0161295
0.0944288
0.094432
0.0634892
0.052519
0.0505356
0.0547284
0.0862682
0.106427
0.103417
0.0887189
0.0848681
0.0598279
0.0607552
0.0571952
0.0469223
0.109517
0.108911
0.054305
0.0570631
0.0815306
0.0435394
0.0396807
0.0404385
0.0917363
0.0890378
0.0892879
0.0140962
0.0152305
0.000628476
0.105733
0.105051
0.101829
0.0785673
0.000763722
0.0720092
0.0694223
0.0888596
0.0715735
0.0751546
0.0747098
0.071871
0.0851413
0.0878695
0.0994014
0.100464
0.0542026
0.0522717
0.079249
0.0209485
0.0438569
0.0459885
0.000558665
0.107751
0.107087
0.107674
0.102239
0.0400926
0.0368747
0.0420779
0.0141091
0.0355219
0.0334171
0.0930839
0.0912692
0.0986631
0.0935423
0.0933615
0.0927451
0.100463
0.0991024
0.0994352
0.0411813
0.102291
0.102018
0.0880366
0.0864418
0.0871985
0.000519127
0.0540971
0.0850913
0.095444
0.1037
0.101864
0.102394
0.103223
0.10637
0.105726
0.0443836
0.0390408
0.108516
0.00093198
0.106276
0.104875
0.0716129
0.0731235
0.0689962
0.00124026
0.0933859
0.0884115
0.00044544
0.000862609
0.00281472
0.106203
0.107119
0.106162
0.0763445
0.0370404
0.0411551
0.0960445
0.0985251
0.0839306
0.0847414
0.0828532
0.0927044
0.0931488
0.058634
0.000697953
0.099369
0.0729734
0.073871
0.072079
0.0378295
0.0372406
0.0914227
0.0920997
0.0912182
0.0931198
0.092865
0.0954449
0.0900132
0.000482229
0.0554599
0.0309674
0.106837
0.104011
0.0193817
0.0178355
0.0674819
0.0679891
0.0686893
0.0910356
0.0904909
0.0890987
0.100202
0.101435
0.0483398
0.0433797
0.0929169
0.000709067
0.000389871
0.0793171
0.0633915
0.0612657
0.0134247
0.0137416
0.0855493
0.0393551
0.0365728
0.0617624
0.106232
0.102511
0.102113
0.101041
0.0205068
0.0799533
0.0371209
0.104385
0.105224
0.0961184
0.095459
0.0538548
0.0504443
0.000436332
0.000746933
0.0727329
0.110653
0.109666
0.000343063
0.102775
0.10419
0.104607
0.0519507
0.0478797
0.050093
0.113715
0.0907143
0.0944831
0.0952475
0.0961664
0.0961229
0.0460011
0.0241716
0.0927651
0.0941386
0.0945838
0.0922158
0.0791558
0.0771492
0.101731
0.0952498
0.100306
0.0990857
0.116623
0.0945072
0.0960089
0.0011911
0.00257105
0.0761498
0.0774352
0.0770235
0.0762841
0.063162
0.079686
0.105073
0.106511
0.0954921
0.0839628
0.0845032
0.0407832
0.0376986
0.0397217
0.0384388
0.104397
0.106097
0.10499
0.105699
0.087581
0.0896413
0.088006
0.0891704
0.0622701
0.0635204
0.0650573
0.0609286
0.0508836
0.0545627
0.0503722
0.000741704
0.00143467
0.0654722
0.0654959
0.0860732
0.0829058
0.0839355
0.0850718
0.0404361
0.0297565
0.112739
0.114796
0.108246
0.0394108
0.0898859
0.0922246
0.0706325
0.0722986
0.0716536
0.0713825
0.108022
0.112184
0.0745582
0.0736759
0.0844611
0.0854908
0.0667793
0.0646573
0.0639993
0.0673287
0.090561
0.0911246
0.0903285
0.0912938
0.0259891
0.0200161
0.0872583
0.0892419
0.0890211
0.0873216
0.0878124
0.0750715
0.0746287
0.0760832
0.00165319
0.0383107
0.0367764
0.042344
0.0754267
0.0769928
0.0723889
0.0807618
0.0920266
0.04059
0.0426452
0.0720539
0.073622
0.07122
0.0754843
0.0789443
0.0781898
0.0559624
0.0784995
0.0785966
0.078073
0.0790762
0.0619443
0.0600969
0.062548
0.0691005
0.0717689
0.0690874
0.0926322
0.0945117
0.0947163
0.0922013
0.110905
0.110309
0.111938
0.110861
0.108032
0.10925
0.106046
0.090205
0.0902331
0.0906865
0.0897859
0.0766731
0.0761923
0.0755934
0.0771191
0.0489012
0.0524601
0.0560236
0.0761432
0.0793894
0.0764584
0.00823942
0.00854221
0.0672654
0.0517771
0.0259995
0.0303477
0.0665604
0.0635434
0.0444054
0.0567978
0.095826
0.0940947
0.0698772
0.0724255
0.137176
0.137401
0.0204731
0.0705344
0.0692013
0.0710705
0.0603582
0.0566638
0.0220401
0.0575293
0.0573499
0.0267807
0.0329935
0.0760383
0.104303
0.102753
0.10288
0.104233
0.0119084
0.0116631
0.067054
0.0628504
0.0664737
0.0620678
0.0340068
0.0717851
0.0979283
0.011579
0.0977526
0.0965005
0.0960647
0.0980954
0.096602
0.0501945
0.0457842
0.0514727
0.0694529
0.0689476
0.0831381
0.0797473
0.0810789
0.103305
0.104925
0.10449
0.10366
0.098953
0.10174
0.0997638
0.0241749
0.0234337
0.0830273
0.0807618
0.0808153
0.0949993
0.0986838
0.107609
0.107118
0.107615
0.106993
0.0697508
0.0662601
0.0677993
0.068106
0.0313009
0.050102
0.0481141
0.0972631
0.0955943
0.0961099
0.096953
0.0710832
0.0701762
0.0719152
0.0692198
0.104722
0.106029
0.104918
0.0915251
0.0908476
0.0938132
0.0814965
0.0833995
0.0837687
0.0811677
0.0265163
0.0231677
0.022689
0.0277027
0.0583315
0.0604016
0.0567106
0.0568053
0.0941313
0.0960364
0.0945879
0.0807307
0.0781329
0.0590072
0.0554221
0.0573378
0.0569559
0.0165966
0.012984
0.0818729
0.0791645
0.0801875
0.0807478
0.084283
0.0858993
0.0818829
0.10357
0.118919
0.0863452
0.0885535
0.0808089
0.0781553
0.0797811
0.111329
0.107873
0.136595
0.0754903
0.0755419
0.0731253
0.0832745
0.0792091
0.0814248
0.0632034
0.0626129
0.064635
0.0610892
0.0928888
0.0930775
0.0918738
0.0657092
0.0665381
0.0679137
0.0533492
0.0504623
0.0462576
0.0504748
0.0497992
0.0638231
0.0674035
0.0664864
0.0645896
0.0610595
0.0553741
0.0592746
0.0918651
0.0927876
0.0932875
0.0914926
0.0343953
0.0810789
0.0556148
0.056147
0.0539314
0.0794592
0.0803351
0.0803013
0.0797121
0.0531216
0.0560184
0.0558063
0.0534851
0.0800226
0.0792782
0.0823525
0.0115471
0.0101821
0.0118698
0.0842282
0.104469
0.103498
0.104385
0.102076
0.111836
0.111675
0.095873
0.040785
0.0767599
0.0726024
0.0666318
0.0692074
0.0686365
0.0673964
0.0785
0.0787041
0.0849579
0.0871889
0.0836391
0.0762664
0.0773211
0.0781833
0.0902101
0.0894374
0.0895089
0.0900837
0.0424208
0.041864
0.0435727
0.0406176
0.033826
0.0283463
0.0310987
0.0890446
0.0879845
0.0886593
0.109797
0.109544
0.0917536
0.0916593
0.0481736
0.0434946
0.0445363
0.0375186
0.0350572
0.0372097
0.0854773
0.0897839
0.0925425
0.0917973
0.0905301
0.0628459
0.0654447
0.0968308
0.0973127
0.0969953
0.097409
0.075111
0.0761192
0.0756955
0.0982966
0.0986048
0.0983988
0.0598501
0.061856
0.0595981
0.0619441
0.0580741
0.0591152
0.0576079
0.060845
0.0611376
0.0995143
0.100056
0.0988507
0.0851527
0.0847496
0.0843769
0.0597128
0.0617641
0.0628392
0.0590109
0.00710784
0.00879108
0.0627316
0.0352125
0.0512114
0.032783
0.0895974
0.0890007
0.0920629
0.000828453
0.0121566
0.0767599
0.0802796
0.0797452
0.114946
0.114547
0.0721435
0.0208613
0.0803127
0.0800004
0.0811486
0.0790905
0.117771
0.11724
0.119264
0.0728609
0.0688215
0.0713823
0.0926586
0.0941826
0.0887335
0.086433
0.0870347
0.0882453
0.0589619
0.0577218
0.0607491
0.0933664
0.0930483
0.0941048
0.0924017
0.0361339
0.0356222
0.0571146
0.0529339
0.0624995
0.0589304
0.0569365
0.0573316
0.0584112
0.0336475
0.0276438
0.0753597
0.0734784
0.0747038
0.0738062
0.0732184
0.0788391
0.0794748
0.086693
0.100763
0.100517
0.0999796
0.101447
0.0711254
0.0698567
0.0722134
0.0193254
0.0201615
0.0779746
0.0786655
0.0777978
0.0888576
0.0905691
0.088294
0.0909244
0.072372
0.0716662
0.102564
0.109193
0.106925
0.0994741
0.0988836
0.098285
0.0762232
0.0793988
0.0779901
0.0777435
0.0835963
0.0834021
0.064404
0.0554656
0.0526155
0.0541852
0.053966
0.131783
0.128855
0.0564431
0.0553398
0.0901582
0.0916567
0.0916636
0.0899854
0.108582
0.107962
0.108074
0.108606
0.119817
0.0899062
0.0895206
0.0698448
0.0723498
0.0715387
0.0702526
0.0628479
0.0650726
0.0988672
0.10782
0.106338
0.108996
0.0963878
0.0948632
0.095832
0.0955518
0.0347745
0.0664319
0.0619042
0.0245623
0.0207274
0.0646236
0.0683731
0.0677903
0.066013
0.0266598
0.00400396
0.0903768
0.090906
0.0391345
0.0909638
0.0898544
0.0629376
0.0976824
0.100202
0.0761342
0.0790889
0.0488545
0.0447667
0.0805581
0.0743729
0.0744671
0.0753831
0.101929
0.0715107
0.066706
0.0692609
0.058138
0.0566862
0.0588687
0.0558571
0.123227
0.124455
0.059433
0.0517001
0.0517462
0.0536477
0.0498305
0.0562407
0.057695
0.055287
0.0588474
0.138816
0.0919225
0.0901844
0.0919575
0.0899336
0.0524752
0.0578732
0.052395
0.0558227
0.055022
0.0620484
0.0621658
0.0642368
0.0599992
0.138077
0.138261
0.0971026
0.0985693
0.0989493
0.0237557
0.02133
0.0310442
0.0878983
0.0856208
0.0854745
0.0878927
0.0966633
0.097509
0.0109277
0.0611612
0.0488426
0.044976
0.0483197
0.0445737
0.0733489
0.0712091
0.074822
0.000348543
0.106761
0.106709
0.106025
0.108159
0.0980981
0.0994292
0.0802812
0.095527
0.0975064
0.0951326
0.095031
0.0957308
0.0806122
0.0841749
0.0814599
0.072216
0.0720717
0.0732801
0.070885
0.0973935
0.0984557
0.0972176
0.120543
0.11515
0.113475
0.113787
0.11491
0.0485626
0.0469363
0.0495514
0.0462569
0.000108028
0.0831649
0.0866155
0.085854
0.067379
0.0656814
0.0702497
0.0332816
0.00580646
0.0958121
0.0766241
0.0773179
0.087388
0.0887656
0.0454615
0.0469627
0.0447518
0.103706
0.104612
0.103056
0.105178
0.108682
0.0976
0.0992056
0.0988492
0.097926
0.0836995
0.0826788
0.0925498
0.091356
0.0969803
0.0958739
0.0964847
0.0962241
0.0272191
0.0304447
0.0283195
0.0461778
0.0460975
0.0443855
0.0479351
0.0710353
0.0701787
0.0706101
0.0704299
0.0216338
0.0793683
0.078048
0.0784977
0.0174828
0.0467302
0.0433739
0.0455252
0.0442948
0.0556938
0.0592648
0.0556274
0.0917495
0.0911824
0.0916762
0.0794246
0.0794603
0.0571355
0.058417
0.0550438
0.0599406
0.103404
0.102322
0.103136
0.102537
0.087221
0.0850433
0.0867812
0.0854897
0.0888541
0.0883924
0.0890627
0.0881481
0.00589782
0.00531495
0.00709148
0.0115282
0.0516141
0.04922
0.0499895
0.0472746
0.0486013
0.0485851
0.0608528
0.108916
0.10849
0.107766
0.109798
0.11647
0.135834
0.134907
0.135188
0.1353
0.0771656
0.0777287
0.0766781
0.01195
0.0327945
0.03494
0.108472
0.108677
0.107073
0.089809
0.0897183
0.0895918
0.000159441
0.0539478
0.0535495
0.052154
0.0994117
0.0811594
0.0811576
0.0813073
0.0641362
0.0657453
0.0654121
0.0816644
0.0956906
0.0973656
0.0956965
0.0972532
0.000408166
0.0591001
0.0573448
0.0588318
0.055684
0.0704087
0.0673608
0.0719872
0.0784468
0.0807499
0.0740233
0.0725994
0.0394836
0.102571
0.101234
0.101597
0.102183
0.126438
0.0636927
0.0643097
0.000650644
0.121326
0.121016
0.0870512
0.0868058
0.0863028
0.0875473
0.0575309
0.0525566
0.0563895
0.0544327
0.0640309
0.0667416
0.133336
0.0916525
0.0938785
0.0929253
0.0927316
0.0694215
0.0698258
0.0566725
0.0594004
0.0539024
0.0497071
0.0430382
0.0457415
0.0443814
0.0443782
0.00129777
0.0558601
0.0558259
0.0539688
0.0577458
0.100443
0.100315
0.101092
0.0345211
0.0307618
0.069552
0.0699449
0.0988872
0.0776043
0.07885
0.137246
0.100584
0.086555
0.085783
0.086904
0.0853185
0.133057
0.138214
0.0374481
0.0101397
0.00989488
0.0223638
0.0489784
0.00561438
0.0111233
0.0114181
0.0233028
0.0883821
0.0591247
0.138609
0.00949263
0.00994618
0.00560569
0.00495616
0.138594
0.138434
0.13846
0.13827
0.00877816
0.0659414
0.0645615
0.122345
0.117837
0.127699
0.125626
0.100778
0.104798
0.0153721
0.00771097
0.000282457
0.0823676
0.00096032
0.0190358
0.00057438
0.0103845
0.00961822
0.130934
0.0800445
0.0491264
0.0381558
0.0345648
0.000371069
0.139162
0.00486369
0.00477812
0.00566352
0.0841538
0.00458039
0.149023
0.144422
0.00722794
0.137927
0.000172648
0.0243784
0.0229167
0.0119037
0.0157083
0.0246685
0.120851
0.0909991
0.0222482
0.13736
0.13746
0.0507424
0.0346818
0.0328527
0.0736944
0.104965
0.13585
0.136465
0.0373524
0.0355436
0.129693
0.00859608
0.00162732
0.000321589
0.120415
0.1187
0.00134999
0.00618464
0.0351447
0.000958275
0.000423328
0.00446474
0.121545
0.114884
0.118223
0.118058
0.00311669
0.0436748
0.0062712
0.00022194
0.0227384
0.11417
0.117982
0.0455108
0.00626146
0.00443347
0.00410979
0.130587
0.0426686
0.132214
0.12972
0.131074
0.167801
0.0168386
0.0997556
0.0040726
0.00506551
0.000945059
0.112684
0.00691852
0.0359246
0.0135018
0.0449278
0.0420103
0.0417128
0.0345018
0.0208005
0.0216228
0.0218187
0.0176061
0.0246738
0.0457014
0.0085285
0.00878368
0.00193629
0.00341913
0.0348174
0.018729
0.0163663
0.00422504
0.00487264
0.0324658
0.0346987
0.0210467
0.0199838
0.020923
0.00212991
0.0084231
0.014839
0.000943486
0.000333988
0.000519422
0.0168048
0.000614214
0.000838261
0.000303697
0.000516765
0.00843043
0.00134446
0.0605666
0.0272516
0.0553237
0.0267052
0.00544895
0.00702255
0.0531147
0.0329039
0.0938395
0.0273977
0.110889
0.0325508
0.0911602
0.000671468
0.00594207
0.13296
0.00413653
0.0965763
0.0790259
0.133154
0.132313
0.0476426
0.0108688
0.138345
0.123278
0.124323
0.0220295
0.0753438
0.074723
0.132121
0.00422545
0.00875821
0.00320361
0.00537843
0.0058863
0.00534489
0.00955122
0.00420634
0.129919
0.0335012
0.00451619
0.00594519
0.0095864
0.0126463
0.0284539
0.0278372
0.0469777
0.11056
0.00820127
0.000157139
0.13788
0.137736
0.023093
0.0221292
0.0295775
0.0283939
0.0317425
0.078794
0.0223049
0.00916901
0.0013813
0.0132953
0.0534477
0.0501394
0.118718
0.102225
0.00350649
0.00368619
0.134296
0.063591
0.0279832
0.04772
0.0484825
0.00641619
0.0725125
0.137965
0.0185783
0.0201451
0.0201475
0.136528
0.136863
0.042008
0.0363265
0.00693245
0.0673254
0.0733713
0.0369492
0.0332533
0.0134857
0.0151605
0.135132
0.13635
0.0666522
0.150549
0.143741
0.138625
0.138441
0.0134787
0.119629
0.00745957
0.00835999
0.063876
0.00787343
0.0109248
0.0114054
0.0225789
0.120714
0.00850852
0.00958056
0.0234802
0.00575304
0.00613055
0.128863
0.0121082
0.0331763
0.0109864
0.0597232
0.136929
0.137015
0.00305362
0.114634
0.000816567
0.0305755
0.0929054
0.0944471
0.0665014
0.0330741
0.0326387
0.01114
0.0181254
0.0269232
0.0623339
0.0242704
0.228194
0.184885
0.000449919
0.0388583
0.0389369
0.0375312
0.0375757
0.00876875
0.00330205
0.082433
0.0400251
0.0657547
0.0673506
0.0602784
0.0267277
0.0133062
0.1268
0.122061
0.125264
0.138031
0.138114
0.0376771
0.0346268
0.0371127
0.0446051
0.0468803
0.0990592
0.0924673
0.107101
0.0524351
0.0461223
0.0381166
0.112583
0.042252
0.0646197
0.0665081
0.0685773
0.058768
0.0287573
0.0943375
0.0931297
0.104214
0.138421
0.111218
0.109046
0.130676
0.126507
0.0190524
0.0286475
0.0212082
0.119647
0.118155
0.128382
0.0128633
0.0148007
0.0635327
0.0601275
0.0352456
0.0371233
0.033849
0.0747306
0.0745356
0.0768418
0.0495134
0.0156272
0.0303827
0.0297103
0.0285916
0.0342448
0.13686
0.13725
0.136851
0.137246
0.0145475
0.0142741
0.127203
0.0313993
0.0308056
0.0311687
0.0282211
0.0279441
0.0317108
0.0345885
0.0340968
0.137913
0.136234
0.135673
0.0972877
0.0806408
0.0671952
0.136434
0.0317918
0.0287023
0.011742
0.102184
0.275878
0.214117
0.240164
0.0705676
0.0689277
0.0864058
0.0342254
0.0334369
0.0302444
0.00136539
0.214161
0.0191524
0.0610728
0.0652674
0.0637473
0.0618539
0.00240218
0.136178
0.136734
0.01045
0.0495814
0.117491
0.138906
0.138964
0.11705
0.116716
0.000268225
0.0530325
0.0850478
0.0646056
0.0655315
0.0658099
0.000392678
0.125272
0.128372
0.122586
0.137321
0.136938
0.0489324
0.0466029
0.0495312
0.0236789
0.0451932
0.0673295
0.0680673
0.0655297
0.0936438
0.000692248
0.124109
0.121573
0.0168096
0.00296027
0.104361
0.109617
0.122185
0.11824
0.0547092
0.0531814
0.0207658
0.13338
0.0594227
0.0579573
0.0610488
0.0606802
0.196738
0.18635
0.0372375
0.0361515
0.0344393
0.00798989
0.0101168
0.0207407
0.0231193
0.0250068
0.0439862
0.0286576
0.0632481
0.0618647
0.0493725
0.117448
0.12021
0.00166709
0.0437564
0.0768754
0.0782651
0.0803637
0.0366575
0.0409334
0.0716101
0.138469
0.012489
0.062125
0.0647638
0.064298
0.122684
0.122242
0.0132842
0.135232
0.0232808
0.00887183
0.0870284
0.0893525
0.090251
0.0692116
0.0684026
0.0959102
0.101459
0.0526785
0.050205
0.0209852
0.0220635
0.0282699
0.0252694
0.0164418
0.0131669
0.015481
0.0531967
0.0518207
0.0290511
0.00493679
0.106728
0.0436375
0.0434876
0.0460626
0.0108997
0.0283764
0.124941
0.123812
0.0831614
0.0836593
0.0828401
0.025907
0.072534
0.00939463
0.00112458
0.138792
0.0829359
0.039722
0.0372671
0.0401236
0.0486727
0.0357681
0.000506077
0.140371
0.0634712
0.0914313
0.0193983
0.0252881
0.0820065
0.0380596
0.0353914
0.0163044
0.0872756
0.0336211
0.00540865
0.132062
0.126072
0.0985029
0.0992781
0.110961
0.00143698
0.00558168
0.0633659
0.0189203
0.0501328
0.05431
0.0437484
0.0439819
0.0573114
0.0579619
0.0634479
0.0184474
0.0191888
0.120551
0.118416
0.138923
0.138859
0.0926061
0.0908591
0.00564765
0.0439782
0.0402849
0.0197652
0.0207152
0.0690685
0.0668761
0.00772574
0.0351435
0.0302267
0.0592357
0.0660844
0.1202
0.117515
0.096207
0.13857
0.138465
0.0585146
0.0574844
0.0737235
0.0726294
0.0422859
0.0389857
0.104948
0.0174951
0.0191667
0.0655314
0.0694112
0.0702893
0.06858
0.0809866
0.0790582
0.0832672
0.0828108
0.0815248
0.0992381
0.0999907
0.0999996
0.0418351
0.042177
0.126662
0.134777
0.135375
0.0155986
0.00908956
0.129866
0.127454
0.0432758
0.0560113
0.0597206
0.0584706
0.0985165
0.136211
0.144541
0.0025818
0.0514987
0.0524639
0.0616419
0.117581
0.0362334
0.139055
0.140568
0.0947671
0.0342916
0.0357453
0.0924699
0.093749
0.0898154
0.0887194
0.0960153
0.0945368
0.0167133
0.0141963
0.073134
0.075517
0.139306
0.139253
0.139401
0.116217
0.0405244
0.133498
0.0575411
0.0623013
0.072466
0.0695464
0.0215552
0.0614037
0.059938
0.106409
0.107913
0.0474162
0.132343
0.0251042
0.0279251
0.138481
0.138298
0.102838
0.0990053
0.0982667
0.0981902
0.0984163
0.0233791
0.0259947
0.124661
0.0345627
0.0364615
0.07431
0.154679
0.166209
0.047996
0.137994
0.137665
0.0419122
0.0266922
0.138571
0.0963385
0.0975546
0.0971335
0.0449776
0.0465062
0.0610902
0.0650334
0.0599948
0.0573388
0.134725
0.00553804
0.0736616
0.0738069
0.0706127
0.0755693
0.0344074
0.124677
0.122149
0.118505
0.0733813
0.0700492
0.0720392
0.12176
0.117344
0.112696
0.0958019
0.0975946
0.0974412
0.133473
0.134742
0.134249
0.0870227
0.0767455
0.0748646
0.0770432
0.0219656
0.0199012
0.0225093
0.116189
0.10208
0.108564
0.113707
0.0671683
0.138815
0.130797
0.128763
0.0293833
0.032382
0.0721195
0.073373
0.0914413
0.0905207
0.0895497
0.121991
0.124376
0.11804
0.0888384
0.0874524
0.0872841
0.124037
0.124877
0.125923
0.0734607
0.071088
0.136996
0.137339
0.137513
0.0731762
0.0712624
0.0707226
0.12916
0.130193
0.0765561
0.0769439
0.010872
0.0689432
0.069327
0.0697936
0.0699003
0.0173987
0.0190068
0.0672159
0.0695711
0.0692137
0.0973528
0.202207
0.256523
0.0499942
0.00297584
0.0674711
0.000779505
0.086858
0.0878302
0.0583535
0.0207061
0.133176
0.138158
0.138232
0.122899
0.123928
0.0585965
0.0575713
0.138601
0.101119
0.100522
0.00939207
0.136464
0.137391
0.137784
0.082227
0.0813859
0.132099
0.107247
0.105173
0.126981
0.123156
0.131439
0.131575
0.0612282
0.0621217
0.085054
0.0870736
0.0165747
0.0964576
0.101325
0.180809
0.153012
0.0975416
0.0975314
0.118052
0.111559
0.100254
0.0990441
0.154939
0.141703
0.141759
0.0550054
0.0537013
0.0546394
0.0761987
0.075719
0.014472
0.135096
0.14086
0.12764
0.0765268
0.0715066
0.0763246
0.0760986
0.129029
0.131823
0.131027
0.046404
0.0491663
0.0787295
0.0795857
0.113785
0.115442
0.0345587
0.038038
0.075634
0.0750439
0.036947
0.0378226
0.0399049
0.108043
0.112463
0.107091
0.0259405
0.0650102
0.0652002
0.0650742
0.0625378
0.062895
0.0607194
0.0513123
0.0540368
0.151463
0.0375743
0.0410515
0.0818224
0.0822199
0.0735672
0.0736532
0.0745881
0.0794749
0.0770797
0.074984
0.0831351
0.0812596
0.0408157
0.0419859
0.052641
0.0554608
0.0571694
0.0626989
0.0638622
0.0219978
0.0323975
0.0349884
0.0255709
0.0231035
0.0256442
0.000698195
0.137409
0.136562
0.135821
0.138236
0.138528
0.0992812
0.0171832
0.0152045
0.011291
0.0132585
0.0602938
0.0738179
0.0692454
0.0635642
0.0774379
0.0781194
0.0534429
0.0496498
0.0473456
0.29401
0.246193