/*--------------------------------*- C++ -*----------------------------------*\
  =========                 |
  \\      /  F ield         | OpenFOAM: The Open Source CFD Toolbox
   \\    /   O peration     | Website:  https://openfoam.org
    \\  /    A nd           | Version:  6
     \\/     M anipulation  |
\*---------------------------------------------------------------------------*/
FoamFile
{
    version     2.0;
    format      ascii;
    class       volScalarField;
    location    "700";
    object      p;
}
// * * * * * * * * * * * * * * * * * * * * * * * * * * * * * * * * * * * * * //

dimensions      [0 2 -2 0 0 0 0];

internalField   nonuniform List<scalar> 
29874
(
2.95615
0.182819
0.149963
-2.95432
0.183794
-4.5462
-1.18585
0.717818
2.5467
0.594467
-2.42031
-0.0385935
-2.01953
-0.277339
-2.17246
-4.37866
-2.97092
-3.28158
0.368432
-0.0174205
3.21215
-1.82794
1.23312
0.873037
3.86229
-0.684296
-2.14289
0.285767
0.487753
-2.75444
-2.60196
-3.76948
-0.61491
1.0238
2.92701
1.48384
2.88349
-1.69942
1.46563
-1.01527
1.00511
1.1802
1.43971
3.24494
-2.51546
1.81556
1.00125
-0.816573
-2.92677
4.2059
-0.392922
-2.51128
-4.13925
2.54946
-0.313986
-0.804563
-0.693025
0.834779
1.77175
-2.27378
-0.674505
2.1947
1.53057
6.17297
0.299295
1.03938
0.396339
1.21678
0.688062
0.597366
-1.97852
-1.49802
7.62002
0.537461
1.23428
-2.64712
-0.949457
-2.38868
4.61503
2.66492
-3.47072
-0.271403
1.02748
-1.61514
14.8488
12.6337
0.457064
0.263176
-1.80749
-1.01169
18.519
1.18683
1.25476
-0.586543
0.164917
3.03044
0.559272
14.6439
19.8783
-0.275634
-0.339402
0.501512
0.959323
4.73525
6.42873
19.7196
17.9105
0.192615
0.70826
0.353043
18.1692
-1.6482
-1.81026
1.13264
1.03401
1.03565
2.0475
1.6833
24.5419
1.70638
1.39065
-3.5904
-0.0386165
-0.113284
-0.113914
3.43147
-1.26342
1.33921
1.71161
3.9602
0.729649
3.06715
2.62757
1.17089
0.796561
1.57074
1.0532
-0.185201
-1.73575
3.50543
1.01512
1.54664
-0.553514
5.61513
0.960899
2.92613
-1.20661
2.03427
0.576183
1.79772
-2.20871
-0.887004
-3.38124
-0.230246
-0.607636
1.16996
3.89895
-2.2209
-1.82825
-1.983
-1.52535
4.45543
7.24498
0.888854
0.687293
0.99187
0.578213
3.44118
4.00222
1.07929
0.835437
0.676127
0.910915
16.0529
17.3183
0.805965
0.549116
26.6483
3.92924
4.02386
26.3807
26.42
-1.52236
3.39911
4.29114
-4.67799
0.431164
0.501092
-0.199541
0.942032
0.958278
-4.97535
3.48663
3.61678
3.33423
1.80584
1.4972
-0.505719
26.2408
26.3423
-1.63767
-5.72495
3.35606
2.86364
2.28639
2.80794
2.31018
-6.33445
2.20443
2.31753
2.11019
0.558395
5.21452
3.47153
-1.44565
1.47435
0.690573
0.505133
0.520656
0.736059
-1.05964
-4.75822
-0.266065
2.25623
0.810646
0.494565
-0.354567
-0.168268
-0.649798
0.794573
0.822587
0.765967
0.0050878
-0.535833
3.44954
3.57668
4.49481
-0.602223
0.38861
-0.613105
-1.81419
22.5219
21.8413
3.90501
2.7865
21.2977
21.5432
-10.6921
2.62309
-5.80087
16.4147
2.02305
-10.0731
20.0183
0.234426
20.9168
18.3231
23.4958
-6.0526
18.8165
-3.30124
20.1496
18.0533
-4.00619
-5.34339
-6.41912
-6.92953
3.19665
3.33924
24.833
20.7906
21.1532
-7.15199
-8.54599
-0.524774
3.0805
-5.19908
24.7617
4.14234
-0.303167
-1.28812
0.0761311
0.574692
2.24468
1.96357
3.38618
1.10461
0.689809
20.6768
20.4458
4.36044
2.96473
3.08372
-9.27929
-9.28043
18.3082
18.3742
-4.03529
-9.23319
-9.09612
-8.51966
19.7864
3.20648
21.3217
3.17229
3.23606
20.5157
2.20846
-3.9722
26.0135
-8.8486
-8.80145
-4.3591
-4.92027
-4.48219
19.0246
19.0116
-4.42763
3.58113
3.65496
-5.8641
-10.6191
20.4552
21.6212
3.97499
4.00799
4.31286
-0.636584
18.653
18.2822
3.51701
2.89693
19.4693
19.5008
-8.79226
-5.05606
2.91906
2.42374
2.43814
2.34425
21.3181
-4.16003
21.6789
21.3537
21.4449
21.541
2.10973
2.47432
-9.7075
3.0636
2.00424
-3.22146
-10.3698
-9.40372
-9.74997
0.447422
20.954
20.5977
8.79404
24.8583
-4.51136
21.1532
-7.31727
21.521
21.5808
2.95344
3.02647
2.77086
6.21332
20.3842
20.6577
19.7805
20.3346
0.873983
0.694747
19.9699
18.8256
18.6606
19.032
18.3275
21.4754
21.8537
3.45246
3.25186
3.2752
3.06512
-2.83601
2.16907
2.06407
1.81797
-7.49045
-8.84359
22.2168
-6.52905
-5.53648
-9.46461
-8.90272
-9.66505
-9.78414
2.90896
-6.1335
-6.73518
-6.29413
4.68366
4.66033
4.15182
21.5309
21.2306
21.1129
21.0408
15.9584
17.2165
16.4464
16.0805
1.74634
20.025
19.3845
19.4369
19.9468
21.3034
21.5425
21.8101
17.0271
18.0797
16.0931
17.0589
18.0398
16.6241
-0.862554
-0.0769804
-4.86117
-5.52232
-5.66538
-4.99937
19.755
-3.98334
-3.39794
18.7886
19.0552
19.2527
18.5318
18.3973
18.0073
19.9707
20.0189
1.6613
4.39997
4.47731
4.74738
3.69751
20.206
20.0156
20.9138
15.5669
14.9874
15.5467
-6.0597
-5.70069
-6.08096
-5.47876
-6.8263
-5.65061
-7.46542
-6.56027
19.1816
18.7654
19.2748
2.87707
1.11947
0.996671
1.06682
0.933776
1.06264
11.8817
3.97563
3.85408
3.74294
19.6624
19.9517
19.1443
-6.63785
19.9693
18.8731
19.1925
19.2055
1.1217
21.4662
21.8004
21.6314
21.0606
-2.16759
24.8118
-5.09384
-2.49291
26.6239
-0.562707
-2.52199
0.575715
0.655658
0.668808
-2.88617
-0.974156
2.64611
2.32465
-0.327169
5.71666
6.29339
4.36638
4.73548
-2.19203
1.49211
1.61052
10.9399
1.02053
1.10654
25.5068
0.585068
-4.39556
24.1392
-0.288103
0.969179
-1.22897
10.8084
-1.81104
-1.71187
-2.00799
1.10709
0.596413
-2.04689
-2.21554
-2.20387
-2.08451
3.72075
3.82438
0.316702
0.407823
-0.463392
5.15881
2.86353
2.94487
-0.211587
-0.274572
24.2854
25.3539
-1.35474
-1.3117
-1.96499
-0.161026
0.186666
3.30922
-3.99149
0.762127
0.86289
-0.159677
-8.40187
-9.30337
-7.50496
9.48056
0.640734
-4.36681
-2.4952
-0.38684
-0.379861
-0.303599
-0.712607
25.7633
-3.1365
-2.81634
14.3359
13.5397
21.8388
-4.18903
-0.723819
-6.91151
-4.63975
-1.27572
-0.993302
1.21084
14.1954
-4.75055
-5.44128
7.70876
8.71359
-0.508895
2.72088
2.71123
-0.586857
0.634669
1.06068
0.882999
1.10298
-5.15859
-5.78951
17.9703
18.3055
2.39557
1.98022
4.00191
4.40234
24.3544
0.181507
-4.10383
2.06123
2.22304
2.43911
0.580903
0.644752
1.54766
1.56746
1.44546
19.0543
19.5017
19.1095
1.93405
1.97659
1.83206
2.16544
-5.87458
-5.30068
-5.0487
-0.451704
21.1157
3.97724
3.79812
3.5123
3.84101
18.4849
19.445
9.55084
10.5446
3.30668
0.125023
2.92356
2.47104
-9.69355
-10.5289
12.6876
11.8942
11.0762
16.7397
16.1376
1.80307
1.89389
2.0737
-2.54184
1.46386
1.13696
4.55551
5.3556
4.97458
-0.835824
-1.00253
6.25292
6.30261
6.95275
0.874479
-3.47393
-3.31948
-3.10094
24.8328
25.5336
0.130489
0.274044
0.587197
19.2561
19.4671
-0.900237
-1.35995
-0.553961
-20.5923
-19.7667
6.49714
-9.97415
3.02537
21.1156
3.45872
21.8893
20.9855
1.79299
5.68682
5.0295
-11.3759
3.31935
3.25784
3.87338
3.98002
5.91015
-5.80469
-2.47645
19.4082
17.8348
3.22917
2.93285
-11.5058
-11.6173
0.574708
-10.3239
23.8796
22.6588
24.2225
24.4902
0.738778
-2.73001
-2.23909
13.7872
19.9576
-2.38338
23.1547
-1.18633
21.3676
5.96447
18.2005
18.5994
-0.222744
-6.76637
-10.9969
18.3365
18.5736
0.611521
-10.7384
2.09611
2.69594
2.80172
2.71236
-6.6023
-1.66074
2.66478
0.905269
-0.763701
-1.03238
-11.1665
-10.9569
-2.46217
-2.02829
-12.0728
3.68059
3.48521
-15.6742
3.47183
-7.21097
-32.6054
3.46389
1.11163
-4.8949
-31.2507
-24.8428
3.5971
-16.9289
-15.854
21.2896
6.13473
6.37576
-1.75913
19.8035
19.519
3.32777
2.24625
16.5583
22.0935
21.8739
-3.27234
5.42301
5.08169
-9.16078
-8.88677
-9.9208
-9.50102
-2.54044
0.508348
17.5396
17.4204
-5.5267
-0.189231
-4.12917
0.525045
0.322992
15.9909
14.6538
-6.13395
2.72576
-6.57652
-5.375
3.67416
17.7645
17.9083
4.58553
-3.73686
-11.3213
8.67953
-13.0077
-10.6234
-10.7152
16.2579
16.2738
-16.2004
-23.5044
-11.3104
15.2569
-16.8611
5.40684
3.201
-3.22553
-4.31373
4.46894
19.6998
16.13
2.27621
-20.8667
-3.64716
-0.446756
2.34349
4.26008
4.50232
-8.03137
-8.02326
3.4296
17.4384
2.53075
0.0596167
-1.55498
6.45481
0.419899
22.4299
20.9837
-9.65196
-5.65938
-2.12104
-1.73992
15.1057
13.7418
-0.137964
-0.853207
1.90211
-9.8501
-10.0131
-11.5034
-11.5353
0.903455
-0.19647
-0.382093
2.72138
-3.70259
-2.9615
-5.58829
8.14334
7.27078
6.64767
-1.57628
-2.08643
-13.7944
-14.3131
4.39201
-1.11065
-1.07029
21.6912
21.9632
21.7321
-10.7189
6.37869
4.35549
7.46692
5.22785
16.1902
16.0855
-10.1038
-2.72232
3.44849
-2.38413
-8.98207
-9.81476
5.93361
-3.69409
-11.0869
3.05227
-5.65258
-6.17234
-9.05324
-9.71117
-16.3656
15.0473
16.0816
16.413
2.86257
-10.2813
2.90523
2.46154
5.47475
6.62776
-5.11739
-5.29872
-8.97416
3.02021
3.25907
2.62173
2.49113
2.73082
-2.85229
13.5734
-20.2996
0.583318
2.51293
2.6912
-7.12331
-7.28387
1.73
18.5484
-11.6785
-12.56
-12.2885
5.14975
21.305
4.1947
1.86631
-21.0716
17.028
13.5159
4.08415
3.98857
4.14986
1.1244
-1.46715
-18.9082
0.109063
0.819019
-4.75496
-10.8363
-10.6974
-1.86512
-16.6165
-1.6665
-11.0685
-10.3774
19.1438
18.728
24.0943
-10.747
-10.448
-10.6373
22.2917
16.2615
16.0895
3.2141
-10.6736
-7.70902
-8.36019
3.95304
-3.08667
6.17137
21.1117
-11.8267
3.21226
-0.471607
4.3871
3.99272
1.97434
2.16145
2.4085
-11.4205
23.5554
0.78269
1.33199
23.8047
2.44574
-2.98335
1.44837
1.354
-11.2938
12.2811
0.143196
0.0426392
19.5252
-3.28004
-5.31185
18.7383
-5.76162
-5.11264
1.71483
4.84054
18.6911
18.4415
19.1619
17.6747
3.05284
2.10963
0.808629
1.07458
-2.97628
-3.3966
-7.4861
-6.30071
-7.21572
17.8659
18.168
21.1598
0.874731
1.14369
-11.2239
-11.4088
-7.81268
-8.15139
-4.23774
-3.66327
-4.46937
-3.82019
-3.13798
3.69014
3.19803
16.9609
17.7524
-8.82418
22.5214
18.032
18.2239
-12.6864
-12.1153
-10.6612
-10.0775
4.26538
3.47549
3.64548
3.64542
3.52757
-8.27944
2.83508
3.20085
3.22282
-3.18836
-3.21664
-3.58857
-2.90616
2.58141
-13.1401
-11.8314
3.8205
18.9005
5.3514
5.90991
5.64499
18.3273
17.0889
17.0079
17.5144
17.8958
-0.0714014
0.48127
-0.486986
-1.61123
-1.13663
-1.92038
-1.94168
20.8975
21.2717
-11.5969
-11.4543
-11.2313
-11.3675
-2.30315
-1.14386
-1.83294
3.31437
-2.10034
4.56
17.1137
-7.5298
18.8674
-11.2635
18.3199
18.4393
3.37071
3.44206
3.451
2.17485
2.11341
2.58291
21.6318
2.21952
2.10803
2.30642
2.14018
2.18403
2.12037
1.9505
-3.8005
-3.38409
5.93248
23.6322
4.25866
-6.47105
4.93436
16.5191
-6.69446
3.7931
-15.1774
-1.21936
-1.04849
-15.7601
17.8986
17.8068
17.8345
2.81114
2.30794
2.77456
3.31988
2.8778
1.46374
1.33113
1.29337
16.4468
5.55253
5.17069
-7.95137
-7.23757
2.28694
-8.65824
-9.30102
-8.58323
-1.87381
-2.40621
-1.59151
25.1857
-15.173
23.3137
3.56712
3.06755
3.25008
1.9129
22.0844
19.0845
19.3589
3.57302
19.0575
18.3248
17.7211
18.1396
1.15048
1.62616
14.3066
14.1559
-10.5373
-10.6878
0.399122
-2.01171
-6.28615
-5.29754
23.6084
4.49823
4.31955
4.46865
1.53654
-10.1919
-10.2823
-9.73163
-5.98747
-9.74502
-9.6196
1.7718
1.32642
5.57487
3.59924
3.74548
3.51617
3.4935
3.49509
3.43925
22.0344
3.34069
2.94695
3.07232
2.81951
3.07781
23.805
20.7013
-0.346063
-1.23371
3.33187
3.44875
3.40886
3.27435
3.46568
2.87905
17.2283
17.5451
3.49426
21.0554
5.11545
4.65934
-10.1084
-10.6402
-11.2242
23.6227
4.36261
4.05645
24.0227
24.7258
24.6097
8.59967
8.32523
8.55279
-2.02377
-7.95238
-7.05043
4.24773
3.96606
17.4059
17.5874
17.9497
1.6526
0.97562
17.0287
26.0158
5.98144
-9.63655
-9.57793
-8.48826
22.0435
22.1133
4.05996
4.08645
3.76288
3.41335
3.24177
3.373
15.8129
24.0603
1.1219
20.4827
5.40989
5.42595
-13.4035
-14.156
19.2415
19.0452
1.75525
1.5791
1.12062
0.57136
0.337411
1.23385
-8.48358
-7.80919
-1.42667
25.5073
24.3492
-11.6189
18.0835
17.6234
-16.1899
-16.1527
16.6904
-8.80863
-9.62324
20.3767
1.81708
2.06495
13.621
13.984
-12.8631
-11.4337
21.7011
6.78695
6.87557
-0.933656
-1.19905
-9.06685
-8.78429
24.3575
24.3478
-11.0075
4.73703
4.28598
24.5417
4.48687
4.9091
13.0007
-13.568
-14.373
-13.4555
5.23114
3.50131
3.82192
3.40546
3.46893
3.62027
-8.84112
23.1784
3.2842
3.59087
3.65269
3.58626
2.03283
1.66505
2.88586
3.37201
0.50277
0.534825
7.59938
3.3242
3.44355
21.3908
21.7354
-10.0844
-10.5842
-10.8857
-10.705
18.7189
-11.1277
3.31548
3.47184
-1.42437
17.5938
17.5349
21.6045
21.9924
21.603
21.5458
3.14001
13.0192
12.6023
12.4193
-3.09943
-2.65276
-2.04146
-1.53766
17.0379
16.1016
17.3886
18.0586
-6.05313
-6.73962
-7.01682
26.3414
26.5774
20.2149
20.1036
16.5742
16.9899
16.7072
16.6085
-14.7346
-9.69763
0.393328
0.264619
-5.56864
-7.43741
4.21727
4.49987
-10.0126
-9.77347
-9.64028
-8.60644
4.76364
4.59599
1.51714
1.4825
2.50091
2.62623
18.3852
18.7454
18.1143
17.5907
3.62672
3.53932
3.39522
3.57093
-0.952321
21.645
2.66219
2.89961
3.0955
2.95938
6.61859
-10.24
-9.63681
-10.2291
-5.69026
-6.45228
-6.04939
-6.30454
17.1517
16.6258
17.1074
-4.70522
4.51228
-7.32947
-5.70548
-9.44014
-9.43467
-8.80642
18.0549
17.7906
18.1357
-7.77685
-11.3078
-11.2236
-11.184
-11.1247
-9.66931
-9.14542
-9.74476
18.4071
17.8782
17.7534
-1.80954
-1.34636
0.275726
-0.324705
4.64087
4.56074
4.63942
2.02314
2.27949
1.76167
4.12059
4.02771
3.81354
3.67575
3.6596
-10.9008
-10.6823
-10.9172
-10.9772
-9.14238
-7.37057
-6.6346
18.3497
17.8034
17.7321
-3.00598
-3.46189
-5.80782
20.124
-4.01212
-4.34
-6.29629
-6.71868
20.1703
19.5379
15.4055
15.6481
19.4206
18.9875
2.131
1.92908
-12.7368
-8.4606
-7.52134
-8.15649
-12.9113
-13.4487
-12.4692
-3.7968
-4.48701
-5.87674
-6.47164
-7.59037
3.13775
2.69065
3.56677
3.50574
-22.8275
-22.5575
-11.4219
-11.7101
-10.5923
-11.541
-7.73189
1.26238
3.64448
-22.2823
14.7513
15.2041
3.66894
3.61156
3.48442
20.3075
20.2858
20.1557
-8.8127
-7.78435
2.73789
2.44958
2.69341
3.34494
3.12969
3.1058
3.13201
2.5411
2.78583
2.93096
-6.49329
-6.73517
17.409
17.6471
17.9181
2.48965
1.77077
3.19174
3.52782
3.89464
3.26847
-8.50766
-8.26401
-8.48942
-8.03655
-9.22851
18.973
19.0222
0.255269
-0.323363
-1.24854
-0.547476
19.9106
19.5159
19.1854
19.6687
5.57571
5.6776
5.7442
-1.88939
-0.831276
-0.0834954
-0.202387
-0.101068
-0.610216
-1.28116
16.7262
17.7813
17.1179
17.4171
21.1288
-6.27788
-6.64009
-5.92925
15.4972
15.0454
14.74
17.3616
17.9318
-6.16217
-7.05279
-6.39044
-6.22697
-4.9068
-4.31381
3.04813
2.67144
2.94774
2.82777
3.60013
4.00828
3.34063
5.28021
4.83013
2.74136
3.0357
17.1535
17.4706
17.146
0.970489
0.759483
2.2962
2.59424
2.57638
2.71473
16.1515
16.558
16.519
-6.03459
-6.47292
-4.98478
-6.14527
3.79492
3.8232
3.66798
-7.38179
-7.06849
-7.86743
19.8492
19.9617
17.8259
17.6985
17.4691
19.0487
18.7398
18.5112
18.4496
19.7029
19.9095
19.668
3.2625
3.40957
3.28677
3.06865
-10.9494
17.8761
18.4437
18.9679
18.8229
-11.5405
-11.4916
-11.4473
-11.2988
-4.23213
-3.74887
-4.85904
-5.17236
18.1226
18.1278
17.2791
23.1849
23.1909
23.2459
1.09602
2.90887
2.52847
2.68061
13.9102
5.2209
4.93438
4.10347
-6.91595
-11.4932
-0.725698
-10.2205
-10.3564
-10.0805
-9.53719
-11.6616
-11.6454
3.47866
3.47497
3.14321
17.9421
17.721
17.5553
3.6309
3.53299
3.48505
3.82338
21.9419
22.0323
21.7192
21.9972
-5.14235
-4.90285
-4.60449
3.88176
3.72732
3.8596
5.37947
4.48947
4.66048
4.60459
-7.12539
-7.29293
-6.63948
-9.70072
-9.60282
-9.60283
5.45428
16.4916
15.764
15.4387
15.8773
-4.72824
-5.22248
2.80929
2.58143
3.74172
0.133139
-11.2807
-11.1218
-10.6921
1.29692
2.24626
0.989336
-7.54383
-7.29238
-6.63428
-6.47043
-9.44924
-9.71068
-13.238
-12.9328
-12.3107
1.15482
0.828947
-0.0740239
2.6669
2.60897
2.59258
-8.36614
-8.06444
-8.25547
-8.00608
-22.438
-21.6935
-2.25873
-8.55122
19.7444
21.5695
3.93868
3.58082
3.9711
22.938
-24.0022
-0.770415
-0.320434
-1.04647
7.73717
7.83801
-1.3171
25.0497
2.14476
2.01654
2.33611
2.16283
1.83719
1.45932
1.52598
-4.86169
-5.89874
-5.26589
2.25539
2.91655
3.29411
3.1361
2.89039
3.12754
-2.33777
-2.62928
-2.30129
3.56721
3.43797
3.38331
3.24321
-10.7564
-10.0124
-10.3305
-9.74931
-1.31663
0.319089
-0.102076
0.372504
0.315961
-5.84246
-5.41434
-9.9688
-9.61471
-10.3118
-10.2894
-1.1827
-11.5804
-11.5359
4.42762
3.3045
3.53305
3.71404
3.47609
19.0802
19.6371
19.4611
-4.53522
-4.21778
-10.6978
-11.0899
-10.9695
-2.60125
-2.18141
-1.09752
-0.538192
3.02433
2.62231
-12.5832
-14.2462
-12.6503
3.50079
3.47039
3.62179
18.5042
17.849
17.539
18.1929
17.6529
17.69
1.97696
-3.60822
-4.3632
-4.40982
-4.45886
-4.28688
-4.6023
18.4673
18.8932
-3.21753
-2.16733
-1.40141
-1.56128
4.8043
4.15483
4.46567
4.71109
-2.46755
5.4985
5.48689
-8.97801
-9.45746
-9.57295
-9.61098
-9.90467
-10.2148
1.45213
2.84144
3.19424
3.01919
-0.344586
-0.766677
-1.3164
-1.35464
22.3965
18.84
19.661
-12.5628
-13.6488
-10.1059
-9.28837
-9.81717
-9.11868
-19.8897
-3.36041
4.38165
4.58738
-16.7305
3.34629
3.21745
-7.35052
4.37319
4.43689
3.85187
3.93014
20.7675
21.0381
2.1108
-10.559
-9.84455
-10.4771
4.14921
-4.46651
-4.99197
-4.90115
-4.00909
-4.65245
-3.03415
-3.65549
2.42749
2.19744
19.4434
-8.09317
-7.72562
-7.28367
-8.13682
17.7115
17.2051
18.2946
18.3824
3.45277
3.18844
2.98294
3.36368
3.33465
20.862
-4.69925
-4.3541
-4.41156
-3.46824
-7.11054
-7.93685
-8.08476
-7.75921
1.58843
1.51967
15.0014
14.5778
15.135
-4.91688
-4.77928
-9.3988
-2.92263
-3.11966
-1.8056
-1.60735
-0.0201834
-0.752352
21.9817
19.614
-5.82554
-5.2461
-5.86644
-6.23839
17.9135
18.1929
17.6698
23.9314
3.65976
3.90333
3.66967
1.31865
1.25902
3.41483
-4.84218
-1.04741
0.489556
0.0273918
3.89683
3.64071
-2.91817
-2.18735
-3.40224
-14.0918
-11.5404
-11.4533
-11.5632
-0.602292
0.58752
-0.326673
3.047
2.83214
3.15274
2.54941
2.81602
20.8241
21.202
21.1984
21.476
23.6713
-2.22149
-1.53509
-2.53767
2.52308
2.84285
3.11115
22.5579
23.7601
4.97333
-10.9561
-11.0424
1.38124
1.41777
-10.6558
-10.7598
-10.3929
3.37283
3.41196
3.60727
3.47194
2.53178
-0.457363
-0.289097
0.581243
1.05908
2.52595
2.24523
15.5556
15.8093
3.73324
3.8051
3.79682
3.68321
-10.8172
-9.90733
-10.8506
-9.09182
-8.89879
-8.92207
-8.31036
-8.28805
-7.48516
-8.63232
-8.87578
-12.4227
-11.4682
-11.5056
-11.3085
22.4586
21.1717
21.2742
20.6294
20.9409
-8.86347
-8.93197
-8.34291
4.35075
4.23607
4.39034
1.91124
1.94786
-2.18512
-2.85832
-2.56769
-3.51339
1.38985
0.793317
2.67433
2.3313
0.122324
-0.551747
0.265514
0.524326
3.29047
3.36325
3.46174
3.10467
-3.42595
-3.41949
-3.50058
-17.3674
17.8653
18.1006
-5.24074
-5.94737
-5.69655
-5.25877
-7.47099
1.50823
0.911251
1.727
1.41239
6.19394
5.1226
5.94237
5.47633
5.0385
-10.8577
-10.8622
-10.3844
-16.3224
20.7149
20.7493
4.00295
3.9399
3.57031
4.99862
5.1517
4.93927
24.9224
-12.4435
-13.0799
-13.1184
1.96876
-11.3571
-11.4959
-11.4592
20.1725
19.9782
19.8057
-11.4286
-1.10213
-0.54063
0.459419
0.828143
25.2896
-11.4325
-11.3412
-10.5205
-12.2809
3.84255
3.6718
3.73882
18.0921
18.0819
-10.4943
-10.4714
21.9655
1.09131
0.276821
1.41666
2.35007
-9.07459
-8.53289
-8.14363
19.9146
1.53645
1.55418
3.12218
3.21515
2.89297
3.08267
20.0538
20.5321
20.3337
20.7929
18.8082
17.4052
-7.89618
-1.61925
-0.928676
-1.61311
-1.72945
18.5955
19.2433
18.6375
18.8279
-5.55389
-5.7299
-6.70731
-6.20529
-6.50801
-6.66432
8.99189
-6.91807
-7.31421
-7.21939
-7.73144
2.38107
3.28547
3.46125
-8.53159
-8.06734
17.3687
17.0999
3.58035
18.2064
18.361
0.62837
4.9093
2.57143
2.59194
2.82608
2.67486
-5.9545
0.210952
-15.1604
24.2164
24.2234
22.7444
-15.5633
24.318
24.2248
24.1969
-19.5171
-0.389935
-13.9606
-0.0808129
24.1141
23.0796
23.692
23.8749
-1.86811
-0.0186015
0.00713082
0.0777902
24.4276
-5.34777
-4.43908
6.50425
7.4266
-4.1852
-4.69102
-1.22569
-0.159495
23.0734
24.4335
26.6434
-0.478596
25.0467
23.301
23.736
25.8681
21.2602
7.01425
2.13386
-14.8987
20.4983
23.3211
26.8005
0.434511
24.2516
24.2354
24.226
-2.16165
24.1164
-4.30807
-4.75442
23.9039
-4.27018
24.0203
-10.8146
-11.2486
22.3756
22.7521
24.147
0.981129
-2.86808
22.3065
1.03598
0.809423
-15.3951
23.2438
23.8307
0.340543
-0.523384
0.610077
0.852159
-17.667
-18.0888
7.57686
-21.7662
24.6541
24.7914
0.460193
0.213417
26.566
25.3115
-18.1528
22.526
24.0235
24.5635
10.1102
11.7175
11.0026
-7.11489
24.456
4.45776
24.588
24.9082
22.4676
8.77321
8.08121
22.0735
24.5935
25.9546
26.025
0.869672
-6.55499
6.06531
7.01502
6.37537
-3.71101
23.0644
-1.70456
24.7129
24.6481
24.7292
7.28266
22.9454
22.3978
23.2283
20.6136
20.5785
20.3295
22.4326
23.5081
23.4561
23.095
23.48
23.2634
20.886
24.3363
24.335
20.3039
19.3753
23.325
23.3277
23.7294
23.7551
23.6901
18.9131
19.0019
22.9803
23.1482
23.2064
24.7496
-25.3513
23.8939
23.5869
24.8675
24.9025
23.4096
26.249
26.1746
26.7272
26.6801
22.4732
26.1948
1.5941
-19.2344
-10.9885
23.1166
-23.3046
-22.3812
-11.2952
22.4034
3.25471
24.3382
-0.743811
22.5443
4.13891
25.727
24.5111
1.43322
24.73
0.359974
0.0450486
1.97733
2.26642
22.3191
24.163
-2.81362
0.790525
1.08007
24.7008
-11.9364
-12.0034
2.77694
24.1478
24.1167
24.7886
24.6292
24.5977
24.5888
24.2822
23.8557
3.59954
22.6518
23.8548
23.7994
24.093
23.9142
22.9697
22.9802
-2.25801
11.4603
24.4659
24.8323
1.68528
1.71536
22.7855
22.7281
21.3876
21.4203
21.098
1.78497
-12.3287
22.865
23.5329
23.4486
-0.947109
-0.775954
-0.750997
-0.113264
25.9913
25.8063
2.03002
-12.5963
20.9473
20.0281
19.4512
23.6222
-1.44635
0.249465
22.9251
23.0657
24.7017
-3.06663
-2.87252
19.8108
20.0123
23.3852
-6.09529
-7.612
19.3633
19.6612
22.9005
23.0007
2.21265
1.90309
0.0429782
-3.59733
-4.13542
0.47275
0.410586
22.2128
-0.786642
23.1257
20.7637
-3.28805
22.8032
21.5428
21.8653
-20.9918
-0.418824
21.9826
22.1188
21.345
24.8395
24.8817
7.41782
25.697
22.6065
25.9789
-0.516146
2.47512
2.362
26.6174
4.53327
25.4575
-19.0147
-1.83794
-1.39355
-0.0766269
22.4363
22.5005
21.3732
-22.0983
22.7312
20.357
22.3409
-3.52157
-3.46914
24.7867
22.0751
22.1465
22.1993
22.2514
-21.3402
24.5101
-4.717
22.0795
20.2403
20.0498
20.5302
23.0583
24.938
-1.11975
7.63569
7.04558
0.0820203
0.168738
-15.8386
22.4165
-15.86
20.8827
20.8349
8.3297
9.12934
8.13766
-3.23062
-2.78101
-15.9124
-0.499511
21.1547
1.67844
1.78555
1.91162
20.8685
22.5709
-1.38456
-2.05487
-0.414884
-2.16551
0.671564
0.217683
1.76787
-4.16889
22.2886
-8.48699
-6.69171
1.34791
0.969633
2.38415
25.7536
25.493
-0.184363
-12.7836
22.3406
20.2014
20.6134
18.9054
18.6013
18.5559
-10.4656
23.725
22.8392
22.8624
21.2963
23.0811
1.88242
1.79199
2.26713
1.95478
23.7634
23.7374
-2.84027
23.3522
23.3319
20.3
20.2516
19.8372
21.2648
21.1337
20.8775
1.06218
1.16881
1.33583
4.85613
2.18371
0.436767
3.61108
-5.99798
-5.76803
24.027
9.72819
-4.97375
-3.98625
-4.36944
-10.6793
-10.238
3.64061
19.9435
19.473
19.4914
24.7346
-0.0651884
24.4607
-10.1174
-10.387
-10.4786
-10.1822
24.4327
3.20311
2.93104
24.2596
19.7884
-5.16485
0.714585
0.820893
-0.541606
-0.456859
24.8558
19.7639
-6.24024
-7.1637
-6.68481
-7.55855
24.5948
-2.02762
-2.763
-2.11034
0.751319
0.715107
-2.48091
21.1961
20.9663
-0.73491
21.9945
-7.01095
-6.74058
-7.09332
0.470234
23.3039
-0.846828
-0.432961
23.6576
26.5387
2.05963
1.68744
8.15271
9.45925
19.4738
19.4695
23.528
-7.93603
19.9089
19.9199
19.522
19.6865
0.672837
-1.27778
-7.41806
-7.86163
-8.33602
24.0841
24.0809
-5.17947
-5.34842
-5.27245
-9.9339
-7.83713
-11.9825
-12.3654
19.8001
-4.93902
-4.67189
24.2888
19.1111
18.7033
18.533
17.9857
18.8389
18.9503
-0.557404
-2.61163
23.4702
-3.9133
-4.72953
-4.95398
1.67633
1.09071
23.2814
0.714804
22.1588
22.9145
-2.76657
-2.95377
-2.15752
-8.23811
-7.7007
15.233
14.577
21.0862
20.7135
18.3366
18.9356
18.8248
19.3156
19.7694
19.5889
19.3693
21.0233
19.321
24.2055
26.0437
11.2535
-9.82902
-9.97849
-9.70766
23.8297
24.3514
3.67609
3.39663
2.40086
2.49035
2.31269
23.34
-10.7322
-3.68167
26.9573
-0.0106379
-3.93473
18.7625
18.4836
18.3541
-0.312915
22.4448
24.8987
-6.63689
-3.41641
-0.591108
19.7086
19.8359
1.33818
-10.7441
-11.1181
25.3379
-5.09707
-8.09285
25.8605
-0.98706
-1.64232
3.56612
3.65744
-0.647729
23.0582
-17.8757
20.0108
24.7972
20.7006
20.3134
0.94304
0.617687
20.8957
20.9599
20.5079
23.4961
23.4717
0.20271
-0.505444
0.985018
1.01483
3.90327
3.66765
24.6154
19.5875
19.8261
23.3606
23.3294
2.24469
2.12068
-4.39683
-2.341
-2.09086
-0.274314
-0.607082
0.786216
0.601062
12.9629
0.85503
0.857019
-10.013
-9.80857
18.4949
18.6057
-6.21281
-5.61901
0.350992
-14.7434
-14.1553
19.5611
19.1756
19.0646
19.0324
-5.12083
-5.48149
2.4516
2.34623
2.21788
1.61781
2.21182
2.3741
21.7919
21.8353
1.479
1.74322
1.61439
22.6571
21.7214
6.77469
7.75759
21.4473
19.327
19.0726
18.8858
0.536734
-6.90452
-5.77157
26.4373
21.3071
21.1662
-8.46503
0.647055
22.3939
-1.61407
-1.49402
-3.99222
21.9356
22.1169
4.46835
4.58077
4.94277
4.95386
3.42328
3.35733
-2.13652
-1.93734
-0.148342
-0.376596
0.703777
0.664544
0.695231
4.87087
-6.34359
-1.98385
17.266
17.4919
16.0247
16.9811
20.7674
20.3662
20.3444
3.36949
3.26651
20.4251
-4.02186
-11.188
22.8601
1.24424
1.33551
5.94555
0.905397
-0.366136
0.470242
0.683462
19.0541
19.2666
-0.741388
-8.46566
-7.93037
18.7981
2.83097
2.19281
-4.58754
0.640718
0.692711
19.2348
-10.8477
0.478302
-1.25809
-0.157861
0.309869
20.514
20.3061
19.8084
19.2441
19.7607
20.4789
4.67105
26.3805
18.3547
18.5732
18.4989
-5.67749
22.2819
-8.10933
-8.64558
-10.682
2.07317
1.94424
2.21254
3.31652
-5.68328
-6.53841
2.84444
3.34349
3.04422
1.63547
1.35764
1.3078
0.0648673
-0.0637234
18.5691
18.4267
24.3902
24.5977
24.3951
1.00907
0.916359
1.46203
1.55794
-12.6789
-0.67893
5.58803
6.59339
-5.24534
-5.33179
-8.99462
-9.46063
3.24065
3.1902
3.1219
9.14917
8.449
9.83846
-0.31378
-0.351976
-0.135746
1.51609
1.83054
1.54031
17.1701
18.2213
2.61439
2.48049
2.21467
-10.3133
-9.88751
-10.3231
1.53834
1.45637
-10.7893
-11.0341
-4.66323
-7.22808
-7.06636
19.0296
18.9067
-14.8689
-14.2835
19.0489
18.6246
18.5045
3.24367
-2.93439
-0.395528
18.2125
24.1718
0.788562
25.8244
2.90475
2.98075
-7.80067
25.0658
2.81901
1.44435
1.3126
3.03944
2.97968
18.3591
18.5652
0.701305
5.29788
5.17011
-4.34249
4.42728
4.17143
3.90318
0.829501
0.475
6.23408
3.61007
3.62385
5.36675
5.71297
1.03109
1.3474
20.4209
20.3463
3.09539
3.34181
-22.4407
4.06039
4.20891
-4.40605
-5.5733
3.48137
3.44936
5.63489
5.96391
4.28939
4.15889
-2.35052
-2.52911
-2.73627
20.2517
20.475
20.6199
18.6894
18.9223
21.9145
-1.54704
-1.43712
8.33666
-6.09467
-6.16683
1.64436
1.45501
-5.51791
-4.35546
-5.56161
-7.78577
-8.23648
1.80305
1.92929
-0.367312
-0.12363
18.2466
17.4809
-10.3675
-10.0747
-7.8921
-8.20066
-8.40749
-7.86549
-7.34803
-8.89732
21.5846
-5.39576
-4.878
-5.0813
20.2151
20.2139
20.8411
18.3398
17.7253
-0.717166
20.359
20.3087
17.899
17.8006
1.30279
1.44717
1.53245
3.70855
3.26928
3.24766
17.6149
17.8495
21.8914
21.7145
20.6564
20.0302
19.9912
-3.11813
-3.81167
-6.03115
-11.4745
-11.3455
20.6843
20.6554
20.956
26.864
4.12206
4.59052
5.09572
-0.296721
-0.251387
3.65702
18.2751
18.8622
18.4385
18.9643
18.0726
17.246
17.9258
18.5219
1.56446
1.57031
-5.20507
-4.4599
-5.07018
-3.33235
-3.05894
-19.6159
-2.35444
-2.58224
-8.83856
-1.95185
20.7677
20.7822
-3.97549
-3.60231
-3.61907
1.39257
1.32837
1.14216
1.16209
0.670559
21.7313
2.14589
2.59172
-0.179936
-0.0560909
-0.174381
-15.3747
-14.7847
-13.1773
26.4811
26.3197
-12.8874
-12.3958
0.926102
1.5397
21.2359
21.3278
20.7508
21.266
-0.401363
-0.364331
-3.1911
-3.52642
-0.0857633
-0.315152
-0.607899
17.7055
17.7244
16.3889
0.832642
0.759293
0.793114
-3.02715
-3.66371
-3.73239
-4.29161
0.963538
1.92376
2.62706
2.12927
0.965135
0.869764
0.797038
4.18414
-0.953017
-0.699041
20.4356
8.13204
1.01619
20.2705
19.7971
-14.1228
21.8043
1.14084
-11.4933
-12.7546
-8.20222
-11.0409
11.7481
7.274
-1.93463
6.00368
-3.22026
-1.36472
10.0528
5.13157
-14.5688
8.59612
4.38021
-9.46321
6.01215
13.4552
12.7048
-7.85965
7.1155
5.47755
10.1069
-8.69328
-13.2809
10.8799
-12.0214
11.8457
6.37591
2.94318
-6.29126
-10.9337
11.6024
14.0007
6.5447
6.50574
6.49053
16.9162
9.63379
-0.00930541
-0.730425
-0.852372
-17.9414
10.8786
12.0184
11.5885
2.35206
3.24022
2.91846
3.63711
4.96114
10.1583
-14.4886
-14.5889
-5.66012
7.03873
-12.0277
1.82039
11.5987
-1.37146
-5.91593
11.4961
2.39219
-1.92276
-7.90967
11.8296
13.0464
-27.105
11.4278
-5.55615
0.682658
16.9807
6.85913
-12.4428
21.4679
21.8681
-10.9202
-11.4178
6.70631
7.70515
7.61131
-5.10628
0.0840935
5.22762
2.54556
13.1347
9.45084
13.7918
-3.12011
-3.22561
10.4677
9.88568
10.76
-20.0338
13.9953
13.7376
-3.19692
-3.38802
3.19211
5.38474
7.19455
7.74171
-10.982
-12.0651
9.79561
10.676
13.8932
14.7114
0.651347
1.52031
-16.1916
-17.1345
0.507069
1.23061
-11.5423
-7.04069
-8.0378
8.23318
7.82759
-12.7279
9.52687
8.6173
4.8161
5.06562
5.72258
6.09829
-13.7958
11.2445
8.41562
-0.849134
1.98547
-12.7388
7.92231
-15.2201
-1.30671
16.4769
-1.10421
2.15894
10.7482
6.4689
-0.151871
0.344668
-11.4644
-1.55786
14.7691
2.52199
1.75948
-0.907554
5.54615
0.327074
-0.458606
7.99519
8.93401
8.56352
6.73441
17.5688
-2.1864
14.3796
11.8856
12.5262
2.20146
1.59321
16.6132
16.8519
4.72366
-20.9486
0.35817
0.998665
-10.6685
-10.7904
10.086
9.88955
-6.54712
-7.20475
-7.98325
15.0501
15.414
8.71292
-26.6229
9.22522
10.6315
10.8639
-14.0109
-2.6308
7.05759
-14.6245
5.40476
-18.5349
-3.1714
-2.90946
2.70783
2.32903
-11.6412
-1.45871
5.67668
2.81905
2.36993
1.67926
2.39718
9.68533
13.3389
13.658
16.8168
-1.11771
-1.71102
-10.3009
9.97902
5.63907
-12.7416
7.36117
7.37729
7.84183
1.57041
2.14852
10.6267
5.96034
6.11148
2.55785
2.79421
10.4174
9.54407
3.24529
3.91153
-3.29338
11.6565
11.0418
-11.7493
2.39146
2.49933
2.15793
2.60998
2.75492
2.68647
-12.7679
-1.36469
1.63723
2.76556
3.44778
5.15833
2.83768
2.55321
13.2184
12.828
3.39388
-10.7331
12.2375
-15.5752
-0.0996473
0.386849
12.6859
12.3475
9.71077
9.18072
-12.2116
6.12329
-3.20545
-3.12178
7.63975
8.37232
5.47
0.378091
0.732904
1.25106
14.6056
15.6381
8.75976
9.19483
10.3079
10.9798
10.6731
10.8625
5.03057
4.37428
-12.7489
-12.9278
0.145163
0.189182
-0.637338
-0.674859
21.4628
21.4389
21.6844
11.3133
10.9827
10.999
5.55489
5.42531
11.8226
11.9518
11.8897
3.19705
2.19454
15.5257
14.3437
11.6634
11.512
11.8392
12.1592
-11.4765
17.3862
17.432
0.225275
-0.801165
9.22237
8.98473
3.62264
4.24298
2.69143
3.24527
9.5969
6.35509
1.30166
-5.39592
-5.81516
-12.6687
2.34536
1.97322
2.6419
3.2551
8.85802
-7.24913
-8.13905
-7.2569
-1.93475
0.57768
1.3811
15.9994
16.9125
3.44294
3.01697
12.0952
12.4406
-2.51665
-2.84649
15.2569
15.5079
2.24362
2.99107
10.1174
10.4061
10.7399
10.3567
8.76512
8.84877
-2.46867
-1.71329
11.1791
11.1182
-13.146
-12.0564
22.279
8.68609
9.85291
10.0293
-6.53711
-7.09432
-1.40539
-1.22264
-3.37747
5.47276
5.4691
3.14143
2.58717
11.0262
11.2367
4.78635
-21.9609
-14.0791
5.91977
8.49079
12.6609
10.6226
-0.180212
4.36699
4.00755
9.38312
10.065
15.3152
15.9423
15.1957
10.8992
10.1669
-12.5722
-2.68807
10.7322
10.9996
10.846
11.3338
3.84352
3.66759
3.45272
3.56649
2.25932
4.23169
3.41444
6.38266
5.46378
5.65777
5.64622
-11.4108
-11.4111
-11.4259
-5.64535
12.6336