/*--------------------------------*- C++ -*----------------------------------*\
  =========                 |
  \\      /  F ield         | OpenFOAM: The Open Source CFD Toolbox
   \\    /   O peration     | Website:  https://openfoam.org
    \\  /    A nd           | Version:  6
     \\/     M anipulation  |
\*---------------------------------------------------------------------------*/
FoamFile
{
    version     2.0;
    format      ascii;
    class       surfaceScalarField;
    location    "700";
    object      phi;
}
// * * * * * * * * * * * * * * * * * * * * * * * * * * * * * * * * * * * * * //

dimensions      [0 3 -1 0 0 0 0];

internalField   nonuniform List<scalar> 
44596
(
1.53837
-2.16501
0.626645
1.53837
1.44653
-1.44653
1.93783
-0.491302
-0.0937673
-2.14905
2.10197
-0.563596
1.31017
-1.31017
0.21595
1.81675
-2.21229
0.765766
-0.267244
2.30059
-0.800612
-1.20759
0.800612
1.30135
-0.560233
-1.3436
0.560233
0.74994
-0.593661
-0.825737
0.825737
-1.17061
1.38656
1.19429
0.636561
-1.83085
0.0434936
1.50307
-1.54656
1.42543
-1.42543
-0.146796
-1.67617
1.82296
1.54969
-0.0876369
-1.46206
1.12314
-1.12314
-1.10501
1.10501
1.12455
-1.12455
0.239902
1.24582
-1.48572
1.37487
-1.37486
1.46877
0.0809288
-1.3161
1.3161
0.267129
1.34784
-1.61497
-1.58073
1.58073
0.60021
0.582083
-1.18229
1.94029
-0.514864
-1.25264
-0.21878
1.47142
-1.42882
1.42882
0.706492
1.29332
-0.793441
1.49993
1.47136
-1.76689
0.295535
-1.6221
1.6221
1.05706
-0.817155
1.24538
-1.41491
0.169535
0.962511
-0.962511
1.2025
-1.3493
-2.31181
0.831493
-0.831493
1.00857
-1.09621
1.84006
-1.9277
-1.58762
-0.614348
-0.790648
-0.79697
-0.898022
0.898022
-1.03981
1.0833
1.98132
0.0635121
1.48714
-1.55065
-1.53487
0.134961
1.39991
-1.55065
-0.457591
0.00726298
-1.43608
0.112721
0.211083
0.259739
-1.81039
-1.50715
1.81039
0.52989
-1.20801
1.99866
-1.43608
-0.941907
-0.473007
-1.56263
1.56263
0.896804
-0.39112
-0.505684
-0.814136
0.416074
0.398062
0.703384
-0.11251
-0.590874
-0.00128348
-0.0907394
0.0920227
-0.059006
-0.0630391
0.122045
0.0608649
1.4422
0.853948
-0.793084
-0.00213293
-1.45992
-1.20637
1.20423
-0.0385961
-0.00352624
0.0421224
0.125075
1.06922
-0.792795
0.555429
0.237366
-1.66181
-0.0143573
-0.348598
0.928787
-0.580189
0.416585
0.593478
-1.01006
0.0489141
-0.882545
0.833631
0.00923153
0.0657761
-0.0750078
-0.0350778
0.00958421
0.0254936
0.0954891
-1.02598
0.930492
0.805067
0.637135
0.710231
-0.609217
-0.101015
1.24519
-0.141757
-1.10343
-0.163039
-1.09297
1.25601
1.53017
-1.69321
-0.0212373
-0.0138405
0.00497768
-0.0435738
-0.934366
-0.727445
-0.0366431
-0.897723
-1.07604
-0.00694546
0.032443
-0.0254976
-1.31119
-0.148731
-0.44267
-0.868523
0.0110779
-0.803873
-0.803058
-0.678799
-0.606724
-0.326683
0.933407
-1.19844
0.979658
0.00075821
-0.000758216
-1.10207
1.25317
-0.151095
0.250445
0.905043
-1.15549
0.822118
0.0681429
-0.89026
0.0160347
0.912752
0.912839
0.898394
-0.479261
0.895846
-0.887967
-0.318399
-1.13107
-0.306873
1.43794
-1.19674
0.259213
0.937526
0.536006
-0.851054
0.315048
1.05596
0.94394
-0.742715
0.753817
-0.011102
-0.881811
1.05135
0.848261
-0.211699
0.253811
-1.18821
0.934396
-0.979723
-1.02978
-0.284673
0.988057
-0.89833
-1.41348
0.934973
0.308468
-1.24344
-0.00932468
-1.4161
1.1404
-0.206001
1.22318
0.75814
1.07585
0.92408
-0.631962
-1.29574
1.07463
0.171191
-1.10632
-0.877153
-1.85286
0.746545
-1.63698
-0.193876
1.15591
-0.734027
-0.421885
-0.103317
0.803302
-0.699984
-0.953739
0.0852164
0.888518
0.116556
-1.05846
-1.31953
0.420384
-0.912659
0.492275
0.823057
-0.611974
-1.52463
-0.804843
0.331836
0.351069
0.716117
-0.775628
0.0595104
0.808516
-0.695795
0.0478057
-0.0385742
0.0376019
-0.0445474
-0.535732
1.02801
-1.2338
0.698068
-0.000975078
0.000975161
0.864117
-0.877815
0.0136979
0.13009
0.000603506
-0.000603453
0.000603638
-1.10148
1.10148
0.860607
0.800373
-0.670283
0.759136
-1.25642
0.497288
-0.720639
0.569822
0.150816
-0.0104074
0.396943
0.457005
-0.56639
-0.236668
-1.55508
1.49748
0.057599
0.206709
-1.08852
1.53017
0.946293
1.38962
-1.47033
0.0807182
0.00124587
-0.00124572
0.00064243
-1.00483
0.892325
-0.861591
1.16313
-0.301534
0.817149
1.41736
1.2936
-0.711519
-0.638402
-0.371661
0.655201
2.35858
-0.983711
-0.147093
-0.92308
0.230533
-0.64354
0.413007
0.0616501
0.798957
0.285426
-0.8763
1.04304
-0.0633819
-1.18489
0.945758
-0.24769
-0.130285
0.795944
-0.112477
1.23536
-1.3584
1.35906
-0.000661152
-1.04183
-0.504734
-1.53313
-0.767363
0.384781
0.0464076
0.628403
-0.674811
1.2098
-0.153842
-0.148598
1.70673
-0.483506
-1.22323
-0.146128
0.756685
-0.405616
-0.62529
-0.225765
-1.40251
1.33946
1.9661
0.00397184
-0.00307651
-0.000895333
0.0014445
-0.00656349
0.00511899
-0.027699
0.0283355
-0.000636543
0.0411802
-0.0208299
-0.0203503
-0.00463803
-0.00470617
0.0093442
-0.00948635
0.00484832
-0.0576937
0.0141267
0.0435671
-0.0172122
-0.105869
0.123081
-0.00489355
-0.00489739
0.00979094
-0.0635081
0.048241
0.0152671
-0.112349
0.0740057
0.0383435
0.0496907
-0.00713372
-0.0425569
0.0073821
-0.00661438
-0.000767734
-0.498445
0.325088
0.173358
0.0186234
0.00158803
-0.0202115
0.00807186
-0.00587945
-0.00219242
-0.00132908
0.00132905
0.00348973
-0.00838328
0.00885794
-0.00547267
-0.00338528
0.020493
-0.0451164
0.0246235
-0.00922237
0.00658668
0.00263569
0.00422099
0.00385087
-0.0536449
0.00338812
0.0502567
0.0456404
-0.0487095
0.0030691
0.0106288
0.0156921
-0.0263209
0.0382572
-0.0276284
-0.0547437
0.00996615
0.0447775
-0.0391433
0.0564227
-0.0172795
0.00145206
-0.00145207
-0.0059848
-0.00671409
0.0126989
-0.010691
-0.0421547
0.0469614
-0.00480611
-0.00705176
-0.051303
0.0583549
-0.0365788
0.00750306
0.0290758
0.00325753
0.0160608
-0.0193183
-0.00249653
-0.0170805
0.0195771
0.0023944
-0.00239432
0.0143348
-0.0385873
0.0242524
0.00471942
0.00613941
-0.0108588
0.00972293
-0.00143925
-0.00828367
-0.0117993
0.0861104
-0.0743112
0.0650191
-0.0768183
0.0525993
0.0216053
-0.0742046
0.0670871
-0.0144877
0.00694044
-0.00230857
-0.00463188
-0.00307259
0.04603
-0.0429574
0.0619465
0.00905141
0.00957202
0.0186356
0.00562895
-0.024192
0.018563
-0.019606
0.0196686
-6.26354e-05
-0.00738299
-0.012223
0.0545927
-0.0548283
0.000235631
-0.0464982
-0.010512
0.0570101
-0.00823683
0.00357304
0.00466379
0.0107566
-0.00777491
-0.00298169
-0.0103666
0.0354481
-0.0250816
-0.0415663
0.0345147
0.00812455
-0.00763987
0.00462334
-0.00800413
0.00338079
-0.0162058
-0.0385379
-0.00100899
-0.00553613
0.00654512
-0.0214598
0.0140768
0.0121299
0.00299416
-0.0151241
0.0059273
-0.0126414
-0.626797
0.300114
-0.0228814
0.0125148
-0.00260927
-0.00114332
0.00375268
0.0232773
-0.023707
0.000429695
0.00766351
0.0156138
-0.0123135
-0.0105679
0.00351741
-0.0158309
0.00791597
-0.0184839
0.00719983
-0.00899131
0.00179148
-0.00239317
-0.00480892
0.00720209
0.00107195
0.00921566
-0.0102876
0.047695
-0.0377288
0.00855172
-0.0530406
0.027242
0.0257985
-0.0165771
0.0198803
-0.00330312
-0.00324134
0.0159402
0.0111012
-0.00890593
-0.00219525
0.0443842
-0.0358325
0.0467367
-0.0023525
-0.0462561
0.0104237
0.0568565
-0.676086
0.619229
0.00651895
0.00423764
-0.0035015
-0.00473533
0.0622545
-0.33958
0.277326
0.172663
-0.501314
0.328651
-0.000214706
-0.00736735
0.00758204
-0.00349633
0.00727586
-0.00377953
0.0265113
-0.0188477
-0.0119138
0.0315689
-0.0196552
-0.0280833
0.01159
0.0164934
-0.0189256
0.0286217
-0.00969609
-0.0470089
0.0402117
-0.00617463
-0.00451634
-0.0162906
0.0242066
-0.00604621
0.00749071
-0.00505497
0.006643
0.0141337
-0.0356419
0.0494847
-0.0138428
-0.0551527
0.0195109
-0.00120799
0.0207318
-0.0195238
0.00579718
-0.0189176
0.0131204
-0.0634089
-0.0489403
0.261629
-0.587488
0.325859
0.00186469
0.0483033
-0.0501678
0.0564575
0.0411697
-0.37336
-0.125085
-0.011671
-0.00854051
0.00744694
0.0111379
-0.0185848
-0.141103
0.20095
-0.0598465
-0.00119244
0.00119243
0.0926507
-0.0339398
-0.058711
-0.00545494
0.00835165
-0.0028967
-0.049138
-0.0284126
0.0775506
0.00842486
0.00570884
0.0113597
-0.00648863
-0.00487106
0.00705287
0.0126157
0.01285
0.00226746
0.0103483
0.183911
0.118637
-0.302547
0.0194093
0.00605199
-0.0254613
0.00182796
-0.0134989
0.463487
0.125313
-0.5888
-0.748022
-0.134523
-0.00427823
-0.0211831
0.036099
-0.00365597
0.0318207
0.0269399
-0.0219776
-0.00496222
0.0127837
-0.0382813
-0.00753257
0.00135794
-0.00842372
0.000891149
-0.385158
0.482336
-0.0971781
-0.506498
0.495396
0.0234706
0.0329521
0.039964
0.0445786
0.0102902
-0.0548688
-0.0502357
0.0405396
-0.000751012
0.0407057
-0.000166064
-0.00877269
0.050671
-0.0418983
-0.0552709
-0.00574734
0.00414897
0.00159836
-0.0775014
0.0283632
-0.00894758
0.0545878
0.0106908
0.00814441
-0.0188352
-0.00948282
-0.0142242
-0.00607976
-0.63402
0.496634
0.137386
-0.038443
0.0266848
0.0117582
-0.000185865
-0.0263558
0.240092
0.236437
-0.476529
0.340172
-0.10008
0.551485
-0.00790772
-0.000998207
0.00159917
0.00953872
-0.00630855
0.0302904
-0.0315739
0.0332177
-0.02824
-0.0598139
0.328299
-0.156071
-0.172228
0.00568985
0.0058979
-0.0115878
-0.00702126
0.0106148
-0.0035936
-0.00623466
-0.0134173
0.019652
0.00921076
-0.0154454
-0.0114446
0.00513606
0.00110954
-0.0125542
0.011063
-0.00592696
0.0289099
0.0219154
-0.0508254
0.031349
-0.00115498
-0.030194
-0.0111301
-0.0486839
0.0367237
0.000878181
0.0255936
0.00840455
-0.00115549
-0.00724906
0.00272356
0.00568099
-0.0254019
-0.0207873
0.0461892
0.0136437
0.0194404
-0.0330842
-0.00134696
0.00417075
-0.0076671
-0.00484542
-0.0487995
0.0467503
-0.0262573
0.00641707
-0.00892538
0.00250829
-0.00901458
0.00720944
0.00180514
-0.0256882
0.0118477
-0.00613257
0.0317262
0.0143319
-0.0166206
0.00228872
0.0202592
-0.0182637
0.923307
0.209523
0.59085
-0.440056
-0.185234
-0.00991482
-0.00670582
0.00514833
-0.0150632
0.00837489
-0.0150807
-0.0487081
0.0107144
0.0379937
0.000467117
-0.0558964
0.0554292
0.00825151
0.0210543
-0.0293058
-0.0239436
-0.00914055
0.0407995
0.00987147
-0.011596
-0.0371135
0.0292034
0.00885649
-0.00199528
-0.00686121
0.00716345
0.00169303
-0.00849609
0.0065008
0.0196433
-0.0163857
-0.531094
0.590604
-0.511945
0.594283
-0.0823375
-0.00405835
-0.00741525
0.0114736
0.0255495
-0.0845555
0.0325056
-0.0181708
0.00480666
0.0285659
0.0118989
0.00836032
0.0169805
-0.00508164
-0.0143581
0.0227184
0.0717584
-0.0623843
-0.00937398
0.00310292
-0.0192859
0.0161829
0.0204376
-0.00765398
0.0235405
0.325176
-0.337198
0.0120224
0.00210867
0.00925102
-0.00795555
-0.000468174
-0.00584688
0.00878284
0.499746
0.947538
-1.44728
-0.000810704
0.00081069
-0.571798
-0.0688584
0.640656
-0.820242
1.31999
-0.00104607
7.10862e-05
0.46793
-0.411074
-1.06734
1.06734
0.130398
0.945457
-0.88534
0.654681
0.230659
-0.406737
-0.478603
1.24113
-0.260143
-0.980983
0.110414
-0.0533148
-0.057099
-0.527808
-0.106212
-0.104416
-0.423392
-0.831357
0.926846
0.184944
0.3114
-0.496344
0.368855
0.0438843
0.6467
-0.690584
0.48165
-0.437766
0.0614107
-0.0168318
0.602039
-0.620303
0.535835
0.0662041
0.135143
-0.109593
0.484081
-0.234765
-0.249316
0.197748
0.286333
0.00337936
-0.00361766
0.000238339
-1.01595
-0.14461
0.578901
-0.434291
-0.000601217
0.000601211
0.399262
-0.944943
0.545682
-0.554821
0.601229
-0.309848
0.595274
0.0802138
0.0549289
-0.60818
-0.22014
0.82832
-0.05339
-0.0227913
0.0761815
0.00802121
-0.157466
0.0100819
0.147384
0.644274
-0.701886
0.0937063
-0.327642
-0.374244
-0.693143
0.365501
-0.920125
0.0449865
-0.998124
0.750434
-0.164493
-0.441283
-0.234802
-0.635719
0.409954
-0.131401
0.350935
-0.894848
0.503728
-0.609042
-0.285806
0.00062043
-0.000620441
0.000998639
-0.00366111
0.00266254
1.0367
-0.148179
-0.0126847
-0.671827
0.684512
0.944481
-0.617312
-0.327169
0.335439
0.219662
-0.698924
0.662878
-0.0871128
-0.575765
0.880459
0.738702
-0.315565
0.714826
0.028045
0.0692146
0.0179117
-0.185425
0.225533
-0.0401083
0.220442
0.423832
-1.15485
1.15485
-0.492644
-0.200498
-0.753342
-0.27264
0.832681
-0.328953
0.0793388
0.274597
0.193333
-0.0040598
0.00231822
0.00174158
0.794848
-0.533219
0.302204
-0.0249633
-0.0880024
-0.00838165
0.00253478
0.814304
-0.958914
-0.456332
2.01897
1.04115
-0.542478
0.361227
0.181251
-0.267882
-0.32474
-0.333188
0.657928
0.0361263
0.247467
-1.50389
0.864103
-0.616636
-0.0822882
-0.253998
0.336286
-0.267713
1.20201
-0.0590703
0.0428645
-0.037465
-0.619335
-0.212022
1.07434
0.249784
-0.579076
0.329292
-0.83036
-0.580576
-0.803992
0.255814
-1.05981
-0.00937137
-0.0122883
0.0547988
0.063537
-0.941352
0.710237
-0.00040547
0.00102589
1.22318
-0.683749
1.90693
0.226007
1.03761
-0.811607
0.933198
-0.92574
-0.0902134
-0.289449
-0.289627
0.643958
-0.0185267
0.00416858
-0.016238
-0.0271157
0.0108777
0.1117
-0.647535
0.722132
-0.0745971
0.29874
-0.607319
0.988977
-0.381657
-0.0284177
0.785887
1.04207
-1.1882
0.00610286
-0.628934
0.266912
-0.142394
-0.00356325
0.0262816
0.0430454
0.182488
-0.0665479
1.2697
0.210644
0.84782
0.0434611
-0.053973
-0.0113672
0.00997082
-0.0979733
-0.0745847
-0.141133
-0.022632
-0.0612062
0.419067
-0.493664
0.509261
-0.0901937
0.3495
0.159761
0.423971
-1.34144
0.15849
0.0399536
-0.48576
-0.157781
-0.445806
0.57773
0.0414997
-0.444903
0.287122
-0.0976596
-0.347244
-0.351658
1.13948
0.129659
0.828337
-0.698678
0.568194
-0.00057003
-0.000240686
0.00437798
-0.781805
-0.456717
-0.59124
0.0219673
1.39528
0.711526
-0.758808
-0.00736682
0.00887676
-0.00150993
0.0027447
-0.0101115
0.00219557
0.00413177
-0.00632734
-0.00607914
-0.00675904
0.0128382
-0.152134
0.264611
-0.112478
0.00619793
-0.00497484
-0.00122311
0.00705246
-0.00123767
-0.00581479
-0.00611371
0.00375561
0.0023581
-0.00537405
0.00504048
0.000333563
-0.0142967
0.0141297
0.00016702
0.0116663
-0.00282121
-0.00884509
0.00221539
0.00945091
-0.0174065
0.00571306
0.0116935
0.00684458
-0.00247963
-0.00436494
0.00291659
0.00392799
-0.0131566
0.00451348
0.00864305
0.00578068
-0.0189372
-0.00262464
-0.00494841
0.00757305
-0.00756301
-0.00174116
0.00930417
0.00225949
0.00744932
-0.00970881
0.0052737
0.0025692
-0.00784292
0.00598404
-0.00927345
0.00328939
0.00852903
-0.00911833
0.000589307
0.00213574
0.00639329
-0.00787881
0.00544027
0.00243854
-0.00533698
-0.00254183
0.00187495
-0.00646448
0.00458952
-0.00161781
0.0093302
-0.00771238
-0.00227763
0.00410936
-0.00183173
-0.0032183
0.00195132
0.00126698
-0.00342376
-0.00316934
0.00659307
0.00497354
-0.00839728
-0.0030353
0.0100951
-0.00705975
-0.00687273
0.00234338
0.00452935
-0.00121518
-0.00565755
0.00258042
-0.00760206
0.00502164
0.00229224
0.00509928
-0.00739154
0.00708829
-0.00677142
-0.000316871
0.00318855
-0.00272151
-0.00046704
0.00325056
0.00320655
-0.00645711
0.00427261
-0.00586286
0.00159023
-0.00616309
0.00353845
0.00882832
0.000280243
-0.00910857
0.00472031
0.00410801
0.0033619
0.00765041
-0.0110123
0.00752599
-0.00911028
0.0015843
0.0110433
-0.00159609
-0.00944723
-0.0105055
0.00048632
0.0100192
-0.00969312
-0.000837648
0.0105308
-0.00456496
0.00643991
0.00733728
-0.0105281
0.00319087
-0.0130814
-0.00121531
-0.00694238
-0.00613902
-0.0246002
0.0201861
0.00441402
-0.00895288
-0.331857
0.340809
-0.00816408
0.00388514
0.00427893
-0.00520459
0.00702863
-0.00182404
0.183841
-0.192794
-0.00476755
-0.00525868
0.0100262
-0.00931834
0.00179958
0.00751875
-0.00215846
-0.00715988
0.0196603
-0.00472044
-0.0149399
-0.00853563
0.028196
0.00726266
-0.00242296
-0.0048397
0.00240835
0.00485431
-0.00664625
0.0102891
-0.00364289
0.00535309
-0.00816258
0.00280949
0.00851916
-0.00560256
-0.00117546
0.0111789
-0.0100034
0.00390561
-0.0058026
0.00189699
0.00992902
-0.0124367
0.00250768
0.00844841
-0.00844845
0.00238778
0.0154881
-0.0178759
-0.010058
0.00517226
0.00488571
-0.00839238
0.00336639
0.00502599
0.00807382
-0.00807383
0.00767518
-0.00767518
0.00100532
0.00730722
-0.00831254
0.0248553
-0.0104729
-0.0143824
-0.00370826
-0.00578221
0.00949048
0.00605503
-0.00550807
-0.000546905
-0.0224413
0.00642483
0.0160164
0.0104387
-0.03288
0.00306063
0.00475593
-0.00781656
0.00577694
0.00160516
-0.00282718
-0.00566892
-0.00317609
0.015306
-0.00375358
-0.00571884
0.00947242
0.00589893
-0.00376525
-0.00213368
-0.00529417
-0.00192879
0.00722297
-0.0113292
0.00458299
0.00674621
-0.0101713
0.00671204
0.00345931
-0.00466674
0.00676088
-0.00209413
-0.000500699
-0.00416604
0.0125168
-0.0102032
-0.00231363
0.0102265
0.00107276
-0.0112993
-0.00806234
-0.000943725
0.00900607
-0.00485422
-0.00320812
-0.00180353
-0.00637041
0.00817394
0.00149286
-0.00627936
0.0047865
-0.000126746
0.00663558
-0.00650885
-0.00144581
0.0069097
-0.00546389
-0.00395437
-0.00407468
0.00802905
0.00832732
-0.00388903
-0.00443829
-0.0114764
-0.00178299
0.0132594
0.012424
-0.00669971
-0.0057243
0.00521081
0.00652352
-0.0117343
-0.00766217
0.00813875
-0.000476577
-0.00659151
0.00767472
-0.00108321
-0.00686752
0.01043
-0.0035625
0.00709393
-0.00094089
-0.00615304
0.00759577
-6.10707e-05
-0.00753469
0.0086348
-0.00225619
-0.00637861
0.000919585
-0.00641109
0.0054915
0.00248574
-0.00827325
0.0057875
0.00670673
-0.000779001
0.00622596
-0.00544696
-0.00692539
0.000434676
0.00649072
-0.0182323
0.0273292
-0.00909693
0.00124624
-0.00529264
0.0040464
0.00287893
0.00485425
-0.00773319
-0.00666971
-0.00442337
0.0110931
0.00337885
-0.0100486
0.00662008
3.78686e-05
-0.00665795
0.00952534
-0.00290526
0.0165757
0.00827965
0.00466833
0.00383828
-0.0085066
0.00990585
-0.00937485
-0.00053099
0.00980062
-0.00980064
0.00538649
0.00341628
-0.00880278
-0.00576058
-0.00178826
0.00754883
0.013995
0.0249659
-0.0389608
-0.00231378
0.00725233
-0.00493854
0.00107694
0.00577362
-0.00685056
0.0160268
-0.0133156
-0.00271127
-0.00548316
0.00182463
0.00365852
0.00924609
0.00344557
-0.0126917
-0.00244923
0.00622161
-0.00377238
0.00663377
0.00474532
-0.0113791
0.00130515
0.00554483
-0.00684998
-0.00263789
-0.00582964
0.00846754
0.0012048
0.0059432
-0.007148
-0.0281698
0.0449599
-0.0167901
0.0340807
-0.0622505
-0.00772434
0.00126344
0.0064609
-0.00433282
-0.00339151
-0.00866848
-0.0026821
0.0113506
0.00965379
-0.00570194
-0.00395186
-0.0115432
0.00633562
0.00520762
-0.00717796
0.0106137
-0.00343575
0.00171151
-0.00677258
0.00506107
-0.0037826
-0.00236561
0.00614821
-0.0074042
0.000724379
0.00667982
0.00146772
0.00187768
-0.0033454
-0.00391903
-0.00145503
-0.00225145
-0.00575268
0.00800413
0.00868699
-0.00756909
-0.00111789
0.00868472
-0.0104882
0.0104648
-0.00774128
0.000208576
0.00533421
-0.00554279
0.00638384
-0.00617526
-0.0255777
0.0326624
-0.00708477
-0.0192698
-0.00630786
0.00203446
0.00548521
-0.00751967
-0.00824428
0.00841897
-0.000174686
-0.00469317
-0.00355111
0.0108788
-0.00714339
-0.00373543
0.00648227
-0.0118193
0.00111192
-0.00817359
0.00706167
-0.00410121
0.00746311
0.00610161
-0.0102028
-0.00804135
-0.00493357
0.0129749
-0.00667769
-0.00355005
0.0102277
-0.0115366
0.00516615
-0.00770098
0.00374662
0.00227737
0.0036712
-0.00594857
0.00489367
-0.00599724
0.00110357
0.00363732
0.00125635
-0.000489014
0.00721665
-0.00672763
0.0053486
-0.00656378
0.026329
0.00111884
-0.0274478
0.0437336
-0.0174046
-0.0321448
-0.00644249
0.00925541
-0.00806351
-0.0011919
0.00661752
0.00776565
-0.00548498
-0.00228067
0.00165194
-0.00989204
0.00440706
0.000996229
-0.0175734
0.00523679
0.0034716
-0.00870838
-0.00763889
0.00892527
-0.00128638
-0.00554355
-0.00210755
0.0076511
0.00378403
0.00638601
-0.01017
0.00768411
-0.00572824
-0.00195588
0.00358561
0.00313822
-0.00672384
-0.0198001
-0.0298958
0.0496958
0.00633027
-0.00864406
-0.00527047
0.0111327
-0.00586223
-0.00799814
0.00204516
0.00595298
-0.000430678
-0.00840448
0.00883517
0.00895619
0.00102728
-0.00998346
0.00428229
0.00286858
-0.00715087
0.00720417
-0.00992261
0.00271844
0.00657316
0.000522312
-0.00709548
0.13048
-0.0472922
-0.0831881
-9.42175e-05
0.00872902
0.00750155
0.0116144
0.00428305
-0.0158975
-0.0058723
0.0116695
-0.00579716
0.0017645
0.00583683
-0.00760133
-0.00896016
0.00340126
0.00555889
-0.000685487
-0.00697669
-0.00839692
0.0181089
-0.009712
-0.00313674
-0.00525719
0.00839393
-0.00236039
0.0104511
-0.00809076
0.00496649
0.00772624
-0.0126927
0.00837026
-0.00923999
0.000869727
0.0105486
-0.00833317
0.0106314
-0.00683656
-0.00379479
0.00247184
-0.00862012
0.00614829
-0.00382292
0.00629476
0.000741592
0.00612831
-0.00686989
0.0105298
-0.00556327
0.0050446
0.00451515
-0.00955975
0.00566763
0.00270263
-0.00397958
0.00964721
0.0104289
-0.00629859
0.00870694
0.0078942
-0.00531378
-0.00158812
0.0082219
-0.0106742
0.00763889
-0.0212382
0.00488925
0.016349
-0.0132524
-0.00798581
-0.0102605
0.00819773
0.00206277
-0.00980164
-0.00045885
0.000690906
0.0047852
-0.0054761
0.0019708
-0.00790444
0.00593362
0.028343
0.0171352
-0.0454782
-0.0275416
-0.0150153
0.000801441
0.00178686
0.00372019
-0.00550705
0.00535852
0.000839415
-0.00432927
0.0125899
-0.0082606
0.00173902
-0.00729791
0.00555889
-0.0101589
0.00644016
0.00371869
-0.00777995
0.00248852
0.00529142
-0.0060453
0.00780451
-0.00175921
0.00401412
0.0136275
-0.0176416
0.0097948
0.00612793
0.00749956
-0.0055202
0.0105686
-0.00504839
-0.00727001
-0.00291231
0.0101823
-0.00393947
-0.00422054
0.00816001
-0.0017343
-0.00621837
0.00795267
0.00152676
-0.00821594
0.00668919
0.00725769
-0.00951388
0.0176566
-0.00623342
-0.0114231
0.00970198
0.00558085
-0.0152828
0.00855209
-0.0361499
0.0275978
0.000958253
-0.00926474
0.00830649
-0.005795
0.0115085
-0.00571353
0.00959524
-0.00138207
-0.00821317
-0.00102199
-0.00748822
0.00851021
0.0106649
-0.00912877
-0.00153619
0.000971802
0.000917956
0.00280244
-0.0037204
0.0142492
-0.00454719
0.00616438
0.00808479
0.0131094
0.00161278
-0.00660934
0.00499656
-0.00693191
0.00820767
-0.00127577
-0.00177059
-0.00516132
1.10108e-05
-0.00878902
0.00877801
0.00969336
-0.00411251
-0.00162401
-0.00891506
0.0105391
-0.00923666
0.00761265
-0.00462566
0.00890836
-0.0042827
-0.00602393
-0.00299458
0.0090185
-0.0173945
0.0122186
0.0051759
0.0107034
-0.0140522
0.00334877
-0.0383515
-0.0193422
0.0741421
0.0563383
0.0111268
-0.00305376
-0.00807302
0.018571
-0.012942
0.00955235
0.00897622
-0.0185286
0.00964953
-0.00761507
0.00185818
0.00779135
-0.00649982
0.00835799
-0.00531513
-0.00673044
0.0120456
-0.0043502
-0.00342946
0.00777965
-0.0374116
0.0212739
0.0161377
0.0320011
-0.0297359
-0.00226528
-0.00179081
-0.00203654
0.00382735
-0.0355723
0.0237068
0.0118654
0.00538847
-0.0265541
0.0211656
0.000342876
-0.0111917
0.0108488
0.0015168
-0.0119099
0.0103931
-0.0140738
0.00719126
0.00688255
-0.0041224
0.00777618
-0.00365379
-0.00547509
0.0106859
0.00694892
-0.00298291
0.00817806
-0.00519517
0.00264449
0.0048731
-0.00751759
-0.0064141
-0.00198119
0.00839529
0.00381461
-0.00675994
0.00294528
-0.00244713
0.0120206
-0.00957345
0.00712093
0.00646567
-0.0135866
-0.00232687
-0.0078636
0.0101905
0.00502501
-0.00914221
0.0041172
0.00632948
-0.00519318
-0.00113631
-0.00190697
-0.00586794
0.0044225
-0.00642176
0.00629501
-0.00755592
0.00756693
-0.00801731
0.00125858
0.00675872
-0.00801255
0.00880921
-0.000796657
-0.00648579
-0.00340419
-0.00813237
-0.0100819
-0.00228233
-0.00663274
-0.00914985
-0.00129547
-0.00533727
0.00656081
-0.00806576
0.00150494
0.00853161
0.00109041
-0.00606525
0.0080768
-0.0084575
0.000380709
0.00169175
0.00638505
-0.0119148
0.00272254
0.00919228
-0.00561177
-0.00574912
0.0113609
-0.0215018
0.0116714
0.00983035
-0.0149391
-0.00656268
-0.00423677
0.0098147
-0.00557793
0.0053268
0.00575153
-0.0110783
0.00180111
-0.00808617
0.00628506
0.0280129
0.00743513
0.0334014
0.141036
-0.238214
-0.190821
-0.00228245
-0.00754182
0.00982426
-0.00695721
0.00467475
-0.0053711
0.010479
-0.00510791
-0.00180768
0.0036149
-0.00180722
0.0168871
-0.0137288
-0.00315831
0.000759723
-0.00663918
-0.00660726
-0.0356037
0.042211
0.0348543
-0.0414615
0.0106993
-0.0205368
0.00983749
0.00470373
0.00512755
-0.00983127
0.01942
-0.0116898
-0.00773021
-0.0101559
0.0172027
-0.00704684
-0.0126792
0.0265828
-0.0139036
0.0156563
0.032457
-0.00587421
0.00434102
0.0036926
-0.00803361
0.018402
0.0227783
0.0395283
-0.0216838
-0.0178446
0.00900331
-0.0114428
0.00243949
-0.0077105
0.0087023
-0.000991792
-0.0247627
-0.00179147
-0.0122478
-0.0186755
0.016884
0.016826
-0.0135372
-0.00328874
-0.0271074
-0.0336261
0.0607336
-0.0617498
0.0375133
0.0242364
0.0163556
8.63024e-05
-0.0164419
-0.00899267
0.00500451
0.00398814
0.00326211
-0.00460558
0.00134347
0.00239805
0.00304936
-0.00544741
0.00566016
0.00638102
-0.00131873
-0.00506228
0.00368306
-0.00512888
-0.00409689
0.00485238
-0.00870751
0.00385513
0.00842541
-0.0091963
0.00806717
0.00112913
-0.00572315
-0.00347315
-0.00259599
-0.00631337
0.00890936
0.00116228
0.00723789
-0.00840017
0.00873589
-0.00757361
-0.00185644
0.0105412
0.0086084
0.000570126
0.00581344
-0.00638356
-0.0050636
0.0056337
0.0122354
0.00203597
-0.0142713
-0.00369974
-0.0145325
-0.0124966
-0.00157363
-0.00674245
0.00831609
0.00528234
-0.00685598
-0.00134013
-0.00540232
0.00159442
-0.0104958
0.00890143
0.004015
0.00473444
-0.00874943
0.00943232
-0.0044073
-0.00420133
0.00495802
-0.000756697
0.00887679
-0.00408438
-0.0047924
-0.0073519
0.0073519
-0.0149129
-0.0237524
0.0386653
-0.00902124
0.00826174
0.000759488
-0.00476888
-0.00218833
0.0259935
0.00377572
-0.0297692
0.0134765
0.012517
-0.0216841
0.0254598
0.00576968
-0.003381
-0.00238867
-0.00113883
-0.0050744
0.00621324
0.00463084
-0.00750629
-0.00382291
0.0105734
0.00625249
-0.00127238
0.0118458
-0.00880687
0.0150594
0.0106264
0.000348386
-0.0109748
0.00543843
0.00518801
-0.0138184
0.0141668
-0.00513737
0.0068764
0.00492139
0.00480797
-0.00972935
-0.00524996
-0.00384663
0.00908342
-0.00173586
0.00424639
-0.00251053
0.00335876
-0.00636324
0.00300448
0.0154883
0.00191617
-0.0174045
0.00397981
-0.0113721
0.00739229
-0.00337647
-0.00423091
0.00760738
-0.00559855
0.00567529
-7.67384e-05
-0.0483931
0.0677933
-0.0194002
0.00541123
-0.00911948
0.00843386
-0.00252911
-0.00590475
0.00116385
0.0450391
-0.0384198
-0.00661919
0.00436249
0.00246512
-0.00682761
0.00589273
-0.00153025
0.00719386
-0.00472875
0.00881189
-0.0220642
-0.0449736
0.0266126
0.018361
0.0380164
-0.0147217
-0.0232947
-0.0204587
0.0234716
-0.00301285
0.0198352
-3.65283e-05
-0.0197986
0.00890119
0.0052285
0.010418
-0.00717646
0.012405
-0.0267297
0.0122557
0.0144739
0.00831998
-0.00902039
0.000700409
0.00337878
0.00494121
-0.00558457
-0.00354529
0.00912986
0.00495451
0.00549467
-0.00947425
-0.00217744
-0.00487525
0.00705269
-0.00851571
0.00418443
0.00433128
-0.0106931
0.00241445
-0.00956873
0.00715429
-0.00846258
0.00636099
0.00210159
-0.00604813
0.00444464
-0.00719863
0.002754
0.00228002
-0.00955976
0.00727974
-0.00346297
0.00346297
-0.00140843
0.00763207
-0.00622364
0.00253745
0.00544639
-0.00798384
0.0194206
0.0201077
0.00177799
0.00855651
-0.0103345
-0.00329339
0.0032934
0.00504511
0.00381282
-0.00226026
0.00730536
-0.00882826
0.0104227
0.000786876
-0.00733058
0.0065437
0.00725789
-0.00120103
-0.00605686
0.00804476
0.0030485
0.00331327
-0.00636177
-0.00262153
0.00630816
-0.00368663
-0.00587883
0.0064415
-0.000562675
0.00637337
0.000264992
-0.00663837
-0.00616509
-0.00569643
0.0118615
-0.0105885
0.00203884
0.00411831
-0.00615715
-0.00834253
0.0209327
-0.0125902
0.00158828
0.00599848
-0.00758676
0.00747869
-0.0058904
0.0025691
-0.0025691
0.00760163
0.00280374
-0.0104054
0.00365763
0.003944
-0.00460342
0.00740717
0.00936415
-0.0076724
0.00177779
0.0071784
0.00911506
0.00674773
0.00909404
-0.00617292
-0.00292111
0.0011011
-0.00882451
0.00772341
0.00849331
-0.00739222
-0.0019318
0.00740267
-0.00547087
0.00409022
-0.00602202
0.00448654
0.00160288
-0.00608942
0.0183003
-0.0161078
-0.0021925
-0.00814441
0.0197578
-0.0116134
0.0281823
-0.0113621
-0.0168202
0.0266018
0.00158052
0.0210949
-0.00850176
0.00193827
-0.00059714
0.00745118
-0.00685404
0.00611631
-0.00655313
0.000436825
0.0108373
-0.00784315
0.00260498
-0.0106463
0.0134423
0.00245822
-0.00245822
0.00574234
-0.00662263
0.000880294
-0.00631389
0.00780675
0.00816432
-0.0103228
0.0225903
-0.00859528
0.00717896
-0.0239991
-0.0325944
0.00870793
-0.0025904
-0.00611753
0.00220811
-0.0106278
-0.000318081
0.0109459
-0.011278
0.0114806
-0.000202679
0.0318323
0.00111982
-0.00520138
0.00520139
-0.00607198
0.00557129
-0.00602371
0.00524471
-0.0331715
-0.00340364
0.0365752
-0.0117835
-0.021388
0.0333931
-0.0367967
0.00604856
-0.00604848
-0.0179305
-0.00844391
0.0263744
-0.0251307
0.0161479
0.00898282
0.00173203
-0.00173203
0.0034829
-0.00348284
0.00585592
-0.00088236
0.00301841
0.00330987
-0.00632827
0.00529578
0.00455611
0.00466608
0.00229826
-0.00696434
0.00126977
0.00545598
-0.00672575
0.00134404
0.0062583
-0.00760234
-0.0386046
0.0206741
0.0032018
0.00369486
-0.00689666
0.00725077
-0.00827839
0.00102762
-0.00443925
0.00767376
-0.00323451
0.00281152
0.00646674
-0.00601
-0.000456737
0.00248802
0.00397871
-0.00786872
0.00032689
-0.00235759
0.00235765
-0.0225211
0.0411038
-0.0185827
-0.0353172
0.0124369
0.0228802
-0.0322998
-0.00301741
0.0392034
-0.0267664
0.0063717
-0.00178871
0.00107753
-0.00730412
-0.0044203
0.0117244
-0.0116334
0.0083352
-0.0127555
0.0210162
-0.0145885
-0.00642765
-0.000443602
-0.032102
0.0175136
0.00835705
-0.00477143
-0.00254118
0.00254118
0.00812677
-0.0153032
-0.00977813
-0.00260935
0.0123875
0.0260262
-0.0332235
0.0071973
-0.0110408
0.0370671
-0.00248816
0.00823911
-0.00575095
-0.00946618
0.00697802
-0.00442726
0.00845919
-0.00403194
0.00420106
-0.00703439
0.00283332
-0.0121128
0.0124557
-0.00692912
0.000919127
-0.00283891
-0.00648507
0.00110481
0.00734899
-0.00845379
0.00689614
-0.00579133
-0.0164869
0.0176757
-0.00118881
0.00617861
-0.0158486
0.00966999
0.00667658
-0.00920568
-0.00232387
0.00232389
0.0012192
-0.00121921
0.016615
-0.0143812
-0.00223387
0.00872431
-0.00669492
-0.00202941
0.0096107
-0.000886395
-0.00736542
0.00158321
-0.00341396
-0.00395145
-0.00830159
0.00492511
-0.00397989
-0.00671326
-0.00867306
-0.000387605
-0.0052473
0.0056349
-0.0372796
0.0157766
0.021503
-0.0276675
-0.00790481
0.0010451
-0.0070904
0.00722492
-0.000851556
-0.00320769
-0.00524542
0.00845312
0.00477038
0.0097435
-0.0145139
0.00732278
0.00317455
-0.0104973
0.00421388
-0.00594118
0.00172731
-0.000153869
0.00436775
-0.00265884
0.00737826
0.00706409
0.000177585
0.0148187
-0.0149963
-0.0163093
-0.00194079
0.00194079
0.000243249
-0.00218404
-0.013958
0.00772461
-0.00559274
0.00623055
-0.000637816
-0.00098164
-0.0046111
0.00185542
-0.00185542
-0.000618283
-0.00504773
0.00566601
-0.00464283
0.00642968
0.00715252
-0.00793824
0.000785709
-0.0294549