/*--------------------------------*- C++ -*----------------------------------*\
  =========                 |
  \\      /  F ield         | OpenFOAM: The Open Source CFD Toolbox
   \\    /   O peration     | Website:  https://openfoam.org
    \\  /    A nd           | Version:  6
     \\/     M anipulation  |
\*---------------------------------------------------------------------------*/
FoamFile
{
    version     2.0;
    format      ascii;
    class       volVectorField;
    location    "700";
    object      U;
}
// * * * * * * * * * * * * * * * * * * * * * * * * * * * * * * * * * * * * * //

dimensions      [0 1 -1 0 0 0 0];

internalField   nonuniform List<vector> 
29874
(
(7.53391 0.0621595 1.08478e-16)
(5.39491 0.0280216 -1.00513e-16)
(5.42447 -0.121057 1.9926e-16)
(7.11055 -0.0796798 -1.17673e-16)
(7.8143 -0.119921 0)
(7.43358 0.00420624 -9.67835e-17)
(4.77656 0.0939796 8.09995e-18)
(7.12407 0.017334 2.30468e-18)
(7.44914 -0.00384946 -1.32824e-17)
(7.19176 0.211841 -1.64243e-17)
(7.21014 -0.116049 0)
(7.2402 0.103168 -3.54776e-17)
(4.45025 -0.053911 9.19982e-17)
(8.27685 0.0484135 0)
(6.72169 0.202989 1.06368e-16)
(6.60448 0.136694 0)
(4.25852 -0.0198582 0)
(7.8019 0.21108 -1.3899e-16)
(4.96179 -0.0408097 -1.4365e-16)
(7.99519 -0.0692475 -3.41197e-18)
(7.11891 -0.0228807 3.50022e-17)
(7.07128 -0.0255609 8.67018e-18)
(7.03394 0.0610594 -9.69258e-17)
(7.52533 0.0379811 0)
(5.75534 0.294467 0)
(7.77178 -0.0107941 -2.54377e-17)
(7.97326 -0.0452274 -9.00119e-17)
(5.06445 0.120597 1.26393e-16)
(5.32715 0.122475 1.76105e-17)
(4.94622 -0.118773 4.78623e-17)
(8.07501 -0.0987403 -2.82513e-17)
(5.35054 -0.0981343 -2.72893e-16)
(7.85637 0.0529881 0)
(5.18598 -0.0345752 -8.88176e-17)
(7.38794 0.133684 3.46693e-17)
(5.47829 0.109945 -1.94017e-17)
(7.03877 -0.000703045 0)
(7.28463 0.314867 -6.7785e-18)
(7.50819 -0.106009 -6.73666e-17)
(5.34803 0.0223947 0)
(7.00039 0.0105085 -4.05467e-17)
(7.02984 -0.0191082 8.27385e-17)
(7.30939 0.0086304 0)
(5.62831 0.0460472 -1.11786e-17)
(8.03396 -0.139708 8.32869e-17)
(7.42968 0.0451149 0)
(4.74915 -0.149941 0)
(8.48961 0.0395826 0)
(7.26076 -0.0607107 4.17782e-18)
(7.17453 -0.113889 -6.04076e-17)
(4.48809 0.141184 -9.02626e-17)
(7.88101 -0.100922 0)
(6.77544 -0.0015931 -4.4971e-17)
(6.60502 0.0691517 3.89458e-17)
(7.67375 0.156053 -1.8542e-17)
(7.71891 -0.0108896 5.24347e-17)
(4.68862 -0.0787839 0)
(8.14831 0.033451 0)
(7.12462 -0.0630294 0)
(7.04645 0.084548 -8.25512e-18)
(7.27155 -0.129182 1.20871e-18)
(7.23638 0.0161757 -7.52325e-17)
(7.22197 -0.232234 -1.22414e-18)
(7.48477 0.0151421 0)
(5.81266 0.0538334 -4.37985e-17)
(7.46175 0.0325774 -3.86331e-17)
(7.7463 0.141469 -2.11079e-20)
(7.59986 0.00523221 7.7785e-17)
(7.64258 -0.0938158 4.22049e-17)
(7.49603 -0.0812105 4.08754e-17)
(8.25124 -0.138583 3.75038e-17)
(7.61439 0.0179238 5.01118e-17)
(7.53143 0.104124 -3.25339e-16)
(5.6533 -0.13297 4.03414e-16)
(7.03651 -0.129908 3.84302e-17)
(8.07079 0.12083 0)
(7.80877 -0.110088 -1.67649e-17)
(8.0087 -0.0997586 1.68995e-17)
(4.99456 0.111076 6.53383e-16)
(7.35011 0.0960151 -1.84965e-16)
(5.39486 -0.0940775 -9.8238e-17)
(7.11653 -0.153121 1.06454e-18)
(6.96733 0.158823 0)
(7.4397 0.198903 -3.79309e-17)
(4.58699 -0.360738 0)
(5.05057 -0.218097 -4.08269e-17)
(7.36393 0.0103753 -2.76141e-19)
(7.03652 0.043251 1.96965e-17)
(7.94742 -0.10914 9.64843e-17)
(7.55137 -0.0684039 5.14497e-17)
(3.79208 -0.690294 -4.44683e-18)
(7.00432 0.0799823 4.8177e-17)
(6.95562 0.134905 -2.78314e-17)
(7.46416 -0.035483 2.77651e-17)
(7.20656 -0.127405 0)
(6.68079 0.102418 0)
(7.09782 -0.231079 -2.08277e-17)
(4.60949 0.00338059 8.91048e-18)
(3.47198 -0.55736 -2.17607e-17)
(6.49188 -0.0631742 1.19068e-17)
(7.52552 0.0514452 -3.12345e-18)
(7.02018 0.0961451 1.23853e-17)
(6.99022 0.0922194 0)
(7.34914 0.0842954 -8.30806e-17)
(7.09825 0.092057 -6.2227e-17)
(3.51204 -0.387667 3.9887e-17)
(3.91323 -0.505267 -3.03478e-17)
(7.50261 0.0056097 6.32859e-18)
(7.59055 0.0119446 0)
(7.24954 -0.13224 -9.55133e-18)
(3.8609 0.140973 -2.73097e-17)
(7.95019 -0.174568 8.52777e-17)
(8.00976 -0.176209 -9.13294e-17)
(6.96761 0.122782 0)
(6.97385 0.136107 0)
(6.9833 0.10494 -5.55358e-17)
(6.87461 -0.310571 8.57601e-18)
(7.22837 -0.186028 1.0694e-16)
(0.467025 0.0870413 -6.26844e-17)
(7.0411 0.0867797 2.48795e-17)
(6.97285 0.133667 4.26013e-17)
(8.25102 -0.20295 -1.26485e-16)
(7.20193 -0.105491 -9.36118e-20)
(7.14871 -0.139467 3.93024e-18)
(7.25469 -0.133969 6.70392e-18)
(6.64374 0.164058 -4.52324e-18)
(7.47602 -0.145435 0)
(7.20416 0.232459 -2.02305e-17)
(7.01958 0.112211 -4.95174e-17)
(6.55138 -0.276779 4.24502e-17)
(6.99952 0.00711609 0)
(6.74542 -0.267496 3.03689e-17)
(7.13173 -0.124189 -5.33025e-17)
(7.07858 0.0960259 9.93352e-17)
(7.28824 0.118092 4.19219e-17)
(7.10951 0.0577365 -3.34964e-17)
(7.25297 0.118933 7.61055e-17)
(7.04121 0.00649187 -9.67991e-18)
(7.35642 0.278552 7.90269e-19)
(7.10591 -0.161689 6.00982e-17)
(7.70695 -0.265572 -7.27831e-18)
(7.76496 -0.0409073 0)
(7.02116 -0.195122 -1.35933e-17)
(7.47222 0.266401 -2.35455e-17)
(7.20993 -0.0559744 -5.5532e-17)
(7.14573 0.18896 -8.27765e-18)
(7.35978 0.033328 3.77913e-17)
(7.32046 0.0718639 5.63032e-17)
(7.0035 0.00664339 -3.11582e-18)
(6.63255 0.122881 -5.21446e-18)
(7.80095 0.088903 3.389e-17)
(7.87853 -0.115591 9.01333e-18)
(6.48403 0.196503 0)
(6.93833 -0.0959275 1.36258e-17)
(7.38426 -0.0758389 2.432e-17)
(7.02398 0.0611133 3.83159e-17)
(7.06389 -0.0135203 2.305e-17)
(7.70347 -0.191538 -3.72973e-17)
(7.93729 -0.0993456 3.89377e-18)
(7.95873 -0.135664 0)
(7.7103 -0.141846 -7.09907e-17)
(7.22152 0.100624 1.95272e-16)
(6.89363 0.150205 -6.44272e-16)
(7.65518 -0.173181 0)
(7.76449 -0.178642 0)
(7.75025 -0.158654 7.2666e-18)
(7.68825 -0.170329 0)
(7.16764 -0.0716028 0)
(7.05663 -0.0168933 -5.93236e-17)
(7.49948 -0.185693 2.21507e-17)
(7.75543 -0.111716 0)
(7.67548 -0.160662 0)
(7.59127 -0.123492 -1.24254e-17)
(4.37116 -0.0110613 -3.727e-17)
(4.05478 0.112387 7.32668e-18)
(7.49625 -0.142237 0)
(7.30623 -0.168373 1.83928e-17)
(1.05654 -0.0898464 -5.67515e-17)
(6.93061 0.0268507 -1.60656e-16)
(6.77909 -0.02082 8.20689e-17)
(1.05135 -0.0708679 0)
(1.02339 0.0191806 0)
(5.0051 -0.0786215 -2.36046e-17)
(6.91549 0.12009 -3.37352e-17)
(6.57065 -0.0330559 1.54337e-18)
(8.25348 0.0610148 -3.76654e-17)
(7.03006 0.133399 -1.12872e-17)
(7.01963 0.114943 -8.85103e-19)
(7.03543 0.082724 4.67201e-18)
(6.98274 0.127906 2.08582e-17)
(6.98521 0.100867 1.53078e-17)
(8.34638 -0.125259 1.06088e-16)
(6.88921 -0.127039 8.02123e-17)
(6.70698 -0.214312 -4.24418e-17)
(5.19002 0.0272756 -4.9884e-17)
(7.07411 0.0716865 2.32221e-17)
(7.0345 0.0989637 4.92729e-17)
(7.61745 0.16165 0)
(1.12617 0.00714965 8.37563e-17)
(1.43612 0.00780775 0)
(7.74239 0.198488 7.48971e-18)
(8.10316 -0.0720036 0)
(7.62782 0.44851 -1.51863e-17)
(7.59357 0.281 -1.45455e-16)
(6.9683 0.0931928 0)
(6.78658 0.117882 4.88837e-17)
(6.89085 0.0942314 7.22649e-17)
(7.38444 0.0856256 3.38996e-16)
(7.08477 -0.18281 -5.98099e-17)
(6.87815 -0.251188 -3.24763e-17)
(7.11606 -0.00827192 4.47362e-17)
(7.30609 0.030012 -2.7921e-17)
(6.35623 -0.133255 -6.62094e-17)
(6.7972 0.0935649 -1.44514e-16)
(7.27693 0.219573 3.06685e-17)
(7.17092 -0.216567 -5.36806e-17)
(7.25997 -0.188895 -5.34918e-18)
(7.20042 -0.160886 -2.74835e-17)
(7.27825 -0.136974 1.73161e-17)
(7.45426 -0.142882 0)
(7.67872 -0.000934774 -1.01156e-16)
(8.30788 -0.0655994 -3.16232e-17)
(6.89124 0.0117942 5.47379e-17)
(7.41866 -0.0545161 -4.14228e-18)
(7.00101 0.0547287 -6.37102e-17)
(7.31855 0.0542224 0)
(7.60289 -0.0154109 6.53523e-18)
(7.45418 -0.122425 -6.48562e-18)
(7.80132 0.168551 -2.87947e-17)
(6.98931 0.235916 -1.91885e-17)
(7.00359 0.0234017 0)
(7.00141 0.0453868 5.20253e-17)
(7.39505 -0.0852975 -1.18494e-17)
(7.26086 -0.0595231 1.10134e-17)
(6.79126 -0.0917474 4.30669e-17)
(6.92013 -0.0835391 0)
(6.48898 -0.240328 0)
(7.76658 -0.113626 -2.08273e-17)
(7.59409 -0.131677 8.2255e-18)
(7.82417 0.0770297 -7.63676e-18)
(8.02117 -0.0786463 5.86359e-17)
(2.47652 1.28762 -7.15935e-18)
(2.94377 -0.472162 7.55538e-18)
(6.0644 2.50014 -2.45005e-18)
(6.20307 2.55361 0)
(2.97185 -1.37029 1.35007e-17)
(2.89428 -1.35033 1.41188e-17)
(7.46764 -4.07638 4.36036e-18)
(6.61669 1.1611 1.56198e-17)
(6.85414 -1.25226 1.39734e-19)
(4.2238 -0.737504 -2.19506e-17)
(6.60399 1.68292 1.0278e-18)
(4.44635 -1.20559 -1.65372e-17)
(4.81263 -0.736178 0)
(7.0963 -0.320679 -7.43567e-18)
(3.20095 -0.456911 -2.2805e-17)
(4.82374 -1.56416 -9.97216e-19)
(0.665347 0.328172 6.73149e-17)
(6.88589 -1.18938 1.71394e-19)
(4.94533 0.410783 1.88878e-18)
(6.14391 -3.71081 9.27902e-19)
(4.81928 -0.350479 -2.69645e-19)
(4.8116 -1.65999 0)
(6.67479 -3.41931 1.37463e-18)
(6.8902 -3.59942 5.39967e-18)
(6.64786 -4.13758 1.89765e-18)
(6.74494 -4.13358 -1.20251e-18)
(6.25245 2.26513 -1.83362e-18)
(6.1928 2.37387 1.99793e-18)
(0.717722 -0.373966 0)
(3.11992 -1.34225 2.78028e-18)
(3.03331 -1.28813 -1.94984e-17)
(3.6534 -0.636654 2.08137e-17)
(5.56172 -1.53435 -1.09224e-17)
(6.61962 2.80887 3.41806e-19)
(6.02519 2.79852 1.17559e-19)
(5.78336 -4.21646 1.23989e-18)
(1.41064 0.536391 -2.11235e-17)
(6.0252 2.4396 -3.29764e-18)
(6.39525 -2.08104 0)
(6.46669 -1.95077 1.16867e-20)
(6.86361 1.79778 -3.81321e-19)
(6.78604 1.79863 0)
(6.45624 2.02338 -2.39659e-18)
(6.50627 2.06698 0)
(6.03723 1.60321 0)
(6.6874 1.89163 -1.21869e-18)
(6.74908 1.88743 1.05573e-18)
(3.2174 -0.586183 3.15856e-17)
(3.32663 -0.63178 3.09766e-17)
(5.85724 2.73262 -2.38443e-18)
(6.16988 2.55925 0)
(6.15141 2.56434 0)
(7.29178 -3.32887 4.4249e-18)
(7.33706 -3.77771 6.93805e-18)
(4.98076 -0.566742 0)
(4.99808 -0.186137 0)
(5.95847 -4.00727 1.29307e-18)
(4.26971 -0.993906 4.15918e-17)
(3.73606 -0.843023 -1.22019e-17)
(3.19438 -0.583836 -3.89315e-17)
(4.42146 -2.54535 2.26035e-18)
(6.27733 2.18924 0)
(4.42612 -1.80887 -2.71007e-18)
(6.13737 2.5527 4.07351e-19)
(6.15778 2.46774 -5.13955e-19)
(3.17477 -1.24951 9.97741e-18)
(6.79009 -0.403667 0)
(5.83351 -4.00691 0)
(2.71136 0.0120207 0)
(6.63659 -4.56083 1.31822e-18)
(6.64835 -4.51432 -6.45368e-19)
(5.84501 -4.07669 0)
(5.94788 -4.12147 -2.36148e-18)
(5.75586 -4.11129 1.18803e-18)
(4.90569 -0.309139 8.87185e-19)
(4.93174 -0.491189 2.42724e-21)
(6.59482 -3.39895 -1.81661e-19)
(6.18364 2.26643 3.19202e-19)
(6.15275 2.33386 4.89329e-18)
(6.83718 -3.81665 2.76335e-18)
(6.89613 -4.68942 0)
(3.10649 -1.48518 -7.58447e-18)
(3.04946 -0.307289 0)
(6.10095 2.33236 -5.26098e-18)
(6.08457 2.37012 0)
(6.06958 2.27185 0)
(7.07422 0.256687 -1.91219e-17)
(4.98841 -0.284328 -2.35901e-18)
(4.9877 -0.471735 -2.55793e-18)
(6.58409 0.514738 -7.92149e-17)
(6.69481 0.394929 -4.99637e-17)
(4.69844 1.19222 1.76589e-18)
(4.60679 1.3262 -2.26569e-18)
(6.71586 -4.50474 0)
(6.27155 -4.03631 1.38534e-19)
(6.24014 2.47373 0)
(6.30838 2.43429 0)
(6.27859 2.41075 0)
(6.27712 2.48912 0)
(3.0178 -1.17825 -5.57388e-18)
(5.61594 -4.06982 0)
(3.00484 -0.483277 1.01545e-17)
(3.08819 -0.478325 -6.50743e-18)
(3.05563 -0.403508 -1.80389e-17)
(3.04211 -0.524888 -5.30596e-18)
(6.39236 2.33741 5.11788e-19)
(6.34795 2.3074 3.78869e-18)
(6.79513 -4.59595 1.37802e-18)
(6.15401 2.52182 3.77685e-19)
(6.63329 1.57121 9.39445e-18)
(7.47741 -0.453504 0)
(6.49922 -2.47935 1.91159e-17)
(7.07676 -3.03531 3.98095e-18)
(5.91114 -2.04169 0)
(7.06679 -0.353291 3.09167e-18)
(3.22115 -0.33294 0)
(3.23816 -0.108917 0)
(5.70172 -0.79718 0)
(0.653084 -0.203644 6.32523e-17)
(6.9997 -3.03888 -6.50662e-19)
(2.78824 -1.87095 -1.15191e-18)
(7.16607 -2.92939 0)
(3.03073 -0.631527 4.68997e-18)
(3.02384 -0.82892 1.00973e-17)
(6.1771 2.54429 -8.17093e-20)
(6.16927 2.5302 -1.4134e-20)
(6.19877 2.53704 1.17516e-19)
(6.16464 0.338302 -8.07706e-17)
(3.42784 -0.15519 3.0976e-17)
(3.30063 -0.311746 2.22668e-18)
(3.44508 -0.314867 -3.43849e-17)
(3.3161 -0.147196 -2.34152e-18)
(6.98903 0.1755 2.08054e-17)
(7.05146 -0.256799 -3.19083e-18)
(3.46453 -0.0855976 -2.49777e-17)
(3.74505 0.0621733 -5.96396e-18)
(3.71339 -0.108426 1.0986e-18)
(3.61035 0.632024 0)
(3.81531 0.377087 2.66352e-17)
(2.94648 -1.166 0)
(2.93117 -1.0718 6.78353e-21)
(6.59741 -0.587723 7.91234e-18)
(6.65009 -0.371302 3.3365e-18)
(6.18094 2.41308 -5.18369e-19)
(6.21088 2.46206 5.46542e-19)
(3.19804 -0.24699 2.02799e-17)
(6.35501 2.44234 0)
(6.38894 2.39661 0)
(6.37104 2.51815 0)
(7.10512 -3.86399 5.97985e-18)
(7.27148 -3.90578 0)
(2.85916 -0.453446 -6.47433e-18)
(7.2128 -3.20951 -6.32246e-18)
(7.00326 -3.46705 6.1474e-18)
(6.72599 -4.61863 0)
(6.67078 -4.57051 -1.38983e-18)
(6.74439 -4.58027 5.68774e-20)
(6.65832 -4.61339 0)
(6.71421 0.289064 0)
(6.72096 -3.98604 8.96088e-20)
(6.77589 -4.07806 1.27759e-18)
(6.83079 -3.92298 -1.29898e-18)
(6.41621 -0.435646 -4.18757e-17)
(6.43516 -0.559811 5.68244e-17)
(6.50543 -0.375841 -6.37757e-17)
(3.07867 -0.257736 5.61918e-18)
(3.1665 -0.160731 -5.79958e-18)
(3.09815 -0.158143 -2.92725e-18)
(3.15751 -0.264079 2.81397e-18)
(4.33276 -0.407403 -3.21785e-17)
(4.10802 -0.519288 1.12046e-18)
(4.23248 -0.537904 0)
(4.26834 -0.307562 1.95583e-17)
(6.83497 0.581788 1.89759e-17)
(3.86286 -3.56299 3.2454e-18)
(4.1096 -3.38421 1.3567e-18)
(3.31504 -1.80215 6.19199e-20)
(3.16809 -1.83781 -5.33989e-18)
(3.06487 -0.13392 -5.1663e-18)
(3.06994 -0.0167671 5.53843e-18)
(2.97486 -0.155817 0)
(4.07931 0.501677 0)
(3.81261 0.794461 9.33721e-18)
(4.27565 -0.226496 0)
(4.06854 -0.0153644 0)
(3.99482 -0.206688 0)
(4.29173 -0.0955506 0)
(6.42892 -1.73401 2.95271e-20)
(6.43646 -1.81017 0)
(6.48628 -3.89261 1.14754e-18)
(6.50378 -4.00521 0)
(6.60058 -3.94379 1.78135e-19)
(6.41904 -3.89929 -3.1685e-18)
(4.53531 1.3822 0)
(6.59846 -3.5107 -4.98656e-18)
(6.31398 -3.66248 0)
(4.3984 1.8264 -1.15606e-18)
(4.64464 1.44457 0)
(3.66387 -0.372892 -2.48132e-17)
(3.90188 -0.221885 0)
(3.74867 -0.178542 0)
(3.87912 -0.372256 3.06834e-17)
(3.3577 -1.1319 4.2804e-17)
(3.29996 -1.25652 -1.53672e-17)
(6.92478 0.14283 -5.0116e-18)
(6.56077 -0.0669461 9.56781e-17)
(6.51691 -0.177298 0)
(6.47212 -0.132799 9.52594e-17)
(6.60017 -0.154394 0)
(3.301 -1.02714 -1.85519e-17)
(3.37646 -0.890537 0)
(3.18161 -0.988052 0)
(4.39892 -1.09153 -2.61188e-17)
(4.56786 -0.722285 -1.17038e-17)
(4.38382 -0.82013 1.20936e-17)
(6.44918 -4.14091 9.36975e-19)
(6.49302 -4.06667 1.52677e-18)
(6.55513 -4.10474 -9.43316e-19)
(6.40816 -4.06389 -1.98429e-18)
(7.06597 -3.79119 -7.64988e-18)
(6.95379 -3.65343 -4.80269e-18)
(7.11225 -3.68598 1.77892e-18)
(6.92241 -3.76742 -3.39428e-18)
(4.85923 -1.12115 0)
(4.84878 -1.23352 0)
(4.82084 -1.11597 -2.55959e-19)
(6.01767 2.85332 4.99794e-20)
(7.3458 -0.186144 -3.04621e-17)
(7.16575 -0.219003 3.50854e-18)
(7.23877 -0.208437 1.89487e-17)
(7.27351 -0.188804 -1.28085e-17)
(6.2603 2.98679 -1.17291e-19)
(5.19925 -0.144532 5.32916e-17)
(6.05704 2.44424 -1.7186e-18)
(6.06898 2.4745 -8.03633e-19)
(6.09437 2.40992 1.42885e-18)
(3.35934 -1.3819 0)
(3.28084 -1.53154 0)
(3.54155 -1.40176 2.68174e-17)
(5.609 -1.20737 6.50332e-18)
(3.48843 0.385913 0)
(3.66118 0.388431 2.50807e-19)
(3.59068 0.307383 0)
(3.56467 0.519032 -1.10816e-17)
(6.93446 0.444093 2.44049e-17)
(3.03341 -0.912017 2.9403e-18)
(2.94104 -1.02125 -6.62611e-18)
(2.9459 -0.950992 3.49379e-18)
(3.03356 -1.00587 0)
(8.03731 0.202605 -6.69171e-17)
(0.588527 -0.0960641 1.22046e-16)
(7.77106 -0.352544 4.58628e-17)
(8.08159 -0.0209118 0)
(1.49413 -0.131426 -4.27067e-17)
(7.08958 0.296971 -1.67349e-17)
(4.67358 0.063687 -8.36179e-17)
(6.99745 0.0219143 3.83105e-17)
(7.00724 0.111236 -2.49039e-17)
(7.00653 0.0850054 -4.97813e-17)
(7.97232 -0.231717 0)
(3.36068 -0.465519 -3.36267e-18)
(6.74918 0.2914 0)
(6.7948 0.243554 1.89658e-17)
(6.03673 -0.0914973 0)
(6.29064 0.196782 -9.41526e-17)
(6.1791 0.243761 5.00017e-17)
(6.49731 0.0765527 2.6541e-17)
(6.42336 0.120619 0)
(2.74058 -0.273745 7.18618e-18)
(6.91489 0.181818 -4.52155e-17)
(6.89217 0.216399 -4.96357e-17)
(5.35712 -0.169958 -3.30433e-17)
(6.95553 0.304895 1.87356e-17)
(6.94435 0.35879 1.25172e-17)
(2.70065 0.46886 3.07794e-17)
(7.00946 0.0778485 4.4017e-17)
(7.71174 0.344461 -1.96568e-17)
(0.456035 0.131868 -7.66535e-17)
(7.00263 0.148288 -1.30454e-17)
(6.9683 0.236629 3.03588e-17)
(7.19647 0.289623 0)
(5.38975 -0.335288 -6.57469e-17)
(7.4049 -0.21199 9.30977e-17)
(2.98269 -0.32394 3.50746e-18)
(3.08946 -0.223137 -1.92408e-17)
(6.8847 0.904334 1.28231e-17)
(7.01204 0.122194 3.28814e-17)
(7.32922 -0.258999 -2.46715e-17)
(7.38644 -0.276098 -8.63667e-17)
(7.33636 -0.332497 2.83518e-17)
(7.62345 -0.201709 4.17189e-17)
(6.5618 -0.4153 7.36163e-18)
(6.54003 -0.521285 -1.01568e-17)
(7.11794 -0.183619 8.9242e-19)
(7.10277 -0.22403 2.45321e-17)
(7.05844 0.213661 -9.81812e-18)
(6.34506 -0.300927 -7.20076e-17)
(6.70445 -0.428805 0)
(6.67622 -0.54902 0)
(6.96384 -0.156283 -4.95431e-18)
(6.85799 -0.161582 0)
(0.430328 0.124581 0)
(2.92723 0.434845 1.74245e-17)
(7.56069 -0.151956 3.23941e-17)
(7.64434 -0.125396 5.80583e-18)
(7.26263 0.408799 1.90228e-19)
(7.07327 -0.22517 0)
(7.13715 -0.193736 0)
(6.68764 0.233307 -1.79078e-17)
(7.59265 -0.392239 0)
(7.00219 0.071086 -2.33227e-17)
(6.99638 0.0885138 8.40629e-17)
(7.01458 0.181823 -2.59706e-18)
(7.07163 -2.83854 1.43008e-17)
(6.3945 -2.23039 -1.15823e-17)
(6.37533 -2.11305 1.06059e-17)
(5.64054 0.0888278 3.99479e-17)
(7.00959 0.156508 0)
(4.94566 -0.113757 -2.35435e-16)
(7.37631 -0.361621 0)
(6.66389 -0.070571 -2.38773e-17)
(6.4193 -0.0792503 1.15542e-17)
(6.29396 -0.0815541 1.10593e-17)
(7.11462 0.339455 -2.77089e-17)
(3.22582 -0.539464 0)
(7.47924 -0.385458 8.35265e-18)
(7.43242 -0.351276 -3.95259e-17)
(4.70633 -0.136813 0)
(4.90157 -0.127465 0)
(2.89625 -0.927329 8.93158e-20)
(7.82284 0.237504 -9.89833e-18)
(7.22266 0.217633 -3.83751e-17)
(7.31164 -0.0346832 0)
(8.381 -0.0595594 -1.09148e-16)
(7.16754 0.376626 0)
(7.13243 0.334071 1.33145e-17)
(6.94209 0.19708 -3.3714e-17)
(4.68934 -0.506823 0)
(8.17569 0.110763 -4.1438e-17)
(7.97336 0.191284 -8.68084e-17)
(5.93931 0.0270978 4.99583e-17)
(5.78325 0.100735 -5.85258e-17)
(7.34248 0.0967464 -1.33824e-17)
(6.343 2.1704 1.54e-18)
(6.37941 2.07447 -1.6815e-18)
(5.95487 -0.141203 -1.98787e-17)
(7.0008 0.0214531 0)
(6.98102 -0.327527 -2.47997e-18)
(7.05758 -0.254479 -2.53961e-18)
(7.00138 -0.283612 0)
(8.16382 -0.027745 1.31017e-17)
(8.09528 0.0361938 -2.62259e-17)
(3.88427 0.504665 0)
(3.7698 0.66602 2.03969e-17)
(6.38264 2.21481 2.67305e-18)
(6.46984 2.16774 -2.47158e-18)
(6.77568 0.0440012 1.50442e-16)
(6.55725 0.04712 5.55232e-17)
(0.771815 0.169093 1.02095e-17)
(5.15572 -0.0494046 5.42201e-17)
(7.0799 -0.00548657 -9.66751e-17)
(6.93946 0.139284 -4.10148e-17)
(6.8726 0.160002 6.70621e-17)
(6.82254 0.194981 -5.87944e-17)
(7.00967 0.0562974 0)
(7.00211 0.0445493 -1.18093e-17)
(6.92443 -0.363434 2.48914e-18)
(6.92856 -0.30825 -8.60149e-18)
(7.00057 -0.266697 0)
(3.57485 -1.31422 -2.93112e-17)
(3.48078 -1.14582 -8.27024e-18)
(3.57057 -1.02028 0)
(6.88041 0.179289 -7.06484e-17)
(6.84422 0.24883 -3.90599e-17)
(6.86778 0.214832 4.65767e-17)
(6.81353 0.264354 6.33751e-17)
(7.85582 0.357657 1.04258e-16)
(7.80404 0.310917 -4.50656e-17)
(7.84437 0.236027 0)
(6.78532 -0.0835342 2.86649e-17)
(3.00106 -1.49959 -7.41783e-18)
(6.5997 0.106143 -2.66095e-17)
(6.56337 0.155425 4.5174e-18)
(6.93772 0.060587 1.15347e-16)
(7.26346 -0.0813783 1.3849e-16)
(3.56796 -1.57576 0)
(3.37375 -1.65837 4.83634e-18)
(5.61002 -0.0423783 -9.46774e-17)
(5.4408 -0.0589376 3.90778e-17)
(7.36795 0.102271 0)
(6.83225 -0.0843609 9.10202e-17)
(7.51101 0.0756723 -4.92365e-17)
(7.33015 -0.164013 0)
(7.42445 -3.72288 8.59657e-18)
(7.25464 -3.38928 -8.89237e-18)
(5.02641 0.0733278 0)
(5.19326 0.0131324 -5.07467e-17)
(5.34347 0.082175 3.44145e-17)
(4.17161 0.308751 0)
(4.33482 0.266306 2.21585e-17)
(6.85617 0.283735 -1.61727e-17)
(6.84358 0.326038 -1.47228e-17)
(6.81409 0.340552 0)
(7.96209 -0.21482 -7.39123e-17)
(7.05365 0.0111026 0)
(6.96874 -0.00452452 -4.04129e-17)
(6.48788 -0.00514413 -1.72802e-16)
(6.31986 -0.0780563 0)
(6.39015 -0.00119194 1.03598e-17)
(7.12108 0.260513 1.84242e-17)
(7.12633 0.297519 3.43159e-18)
(6.20363 -0.0562709 0)
(6.18597 0.0433421 -2.5503e-17)
(6.07506 0.0987458 -1.17221e-16)
(7.01313 0.0301906 0)
(7.5482 -0.358004 0)
(7.67855 -0.307309 0)
(7.67734 -0.279128 0)
(0.804499 -0.111311 -5.28501e-17)
(2.78952 0.417163 -8.55431e-18)
(7.12042 -0.253537 0)
(7.08457 -0.293539 1.28827e-17)
(7.04778 -0.287496 -8.12145e-18)
(3.59518 -0.720227 6.28358e-18)
(3.5147 -0.877696 0)
(7.72222 -0.119022 7.66347e-18)
(7.97837 0.0753981 6.51781e-17)
(7.71876 0.153052 0)
(9.17207 0.453327 1.02133e-18)
(9.12771 0.521829 0)
(5.76223 1.86078 1.2091e-19)
(6.378 -4.71825 1.15825e-20)
(6.64317 0.577182 -7.31993e-17)
(4.57253 0.562533 1.64435e-18)
(6.05398 1.74801 -2.84787e-20)
(2.87982 0.510651 6.83265e-18)
(4.71583 -0.673462 0)
(6.031 3.17629 1.90975e-19)
(5.39993 -3.51221 0)
(5.41975 -3.59857 0)
(7.14566 -4.76553 0)
(6.16541 2.40002 0)
(6.16433 2.39592 3.63473e-20)
(6.05288 2.47053 0)
(6.05245 2.48772 -1.98385e-21)
(5.81134 1.33794 0)
(7.13462 0.514927 -3.48157e-19)
(6.56133 -2.30191 0)
(4.45582 -2.68184 1.17959e-18)
(5.0599 0.514863 1.88478e-19)
(5.95627 -2.43636 5.48984e-20)
(5.99219 -2.49378 -6.67101e-20)
(6.9814 -4.766 -1.439e-19)
(6.98644 -4.77075 0)
(6.36069 1.50684 0)
(7.79856 1.04735 0)
(1.51419 -1.67752 4.32494e-17)
(2.76053 0.0926192 -2.22723e-18)
(2.62367 -2.94481 -5.80165e-18)
(2.4379 -2.83601 0)
(6.37368 2.78524 2.4615e-20)
(6.75558 1.10919 0)
(6.75531 1.15123 0)
(5.30617 1.52438 0)
(4.1264 -3.20074 0)
(6.6774 0.86428 -1.57724e-20)
(2.53832 -0.849749 -5.24199e-18)
(6.64075 1.61073 1.56653e-20)
(4.3142 -2.21595 -1.53696e-18)
(5.79618 1.36758 -9.70953e-23)
(4.8011 1.42205 0)
(4.78908 1.36476 0)
(6.40418 2.97909 0)
(7.24651 0.39986 -3.51999e-19)
(6.74456 -4.75593 7.01135e-19)
(3.68803 -4.25161 1.82261e-18)
(3.87869 -3.96277 5.03742e-20)
(6.38911 1.48476 0)
(7.67081 -0.405109 0)
(5.97835 3.20207 -4.82814e-19)
(5.93183 3.16452 0)
(6.00444 3.03484 6.46085e-19)
(6.68046 -0.781902 2.01736e-17)
(7.27826 0.712744 0)
(6.66644 1.30688 -3.69303e-20)
(6.68111 -0.882202 2.33821e-17)
(5.98726 3.54866 -3.3428e-21)
(6.4186 -2.28497 -3.50027e-20)
(6.41051 -2.22794 4.0254e-20)
(7.12939 -4.70142 7.60716e-19)
(7.14354 -4.68424 2.64948e-18)
(6.71651 1.01348 -2.87791e-20)
(6.70966 0.956338 -7.43576e-21)
(7.91546 -0.146413 1.13187e-18)
(6.11664 2.38984 0)
(6.14776 2.39318 -3.37125e-20)
(8.45285 1.03808 1.82758e-18)
(5.99167 1.58425 2.37921e-20)
(5.80612 -4.46291 1.63046e-18)
(5.3145 -2.94908 -2.04553e-18)
(5.77872 3.1377 -3.42367e-20)
(6.12553 -2.62624 1.99055e-20)
(6.99935 0.470127 0)
(5.74923 -2.33307 4.17021e-18)
(6.03377 0.860802 -7.06809e-18)
(6.01507 -1.62771 0)
(3.36816 -1.25005 3.28562e-17)
(8.45253 0.100034 2.81097e-20)
(3.19444 2.08857 -2.99089e-18)
(5.65627 2.54627 1.47516e-18)
(5.60688 2.50888 -1.44684e-18)
(6.7048 1.46488 0)
(4.81569 -0.833297 -2.4612e-19)
(4.82304 -1.04419 -2.26817e-19)
(6.14633 2.45772 2.08637e-19)
(6.02278 -2.61482 4.50022e-20)
(4.63434 2.0847 -2.62187e-19)
(2.89256 -0.0698972 6.54091e-18)
(2.95908 0.0948721 1.17932e-17)
(6.63617 -1.27755 1.24836e-19)
(5.8355 1.61562 9.28168e-20)
(5.84911 1.64046 -1.49338e-19)
(6.12024 -4.67415 -8.60094e-19)
(6.00044 -4.63823 -2.21385e-20)
(7.67414 0.426893 3.08392e-19)
(7.68201 0.473289 2.20716e-19)
(6.60805 -1.67591 0)
(6.33667 0.943507 -2.35673e-20)
(4.70245 1.79233 1.2954e-18)
(4.81187 1.74749 1.62133e-18)
(6.90948 3.33295 1.11013e-19)
(6.43392 1.04885 -3.79354e-21)
(5.10449 -4.09684 -8.87106e-19)
(6.15188 3.32668 6.8483e-20)
(6.22416 3.2185 9.57219e-21)
(5.16595 -0.0801498 -9.7422e-19)
(5.2238 -0.186809 -4.64633e-19)
(6.98247 -0.640966 0)
(6.08973 1.09032 9.33735e-20)
(7.28946 0.901644 0)
(7.14729 0.893524 1.5775e-19)
(5.98268 1.26791 -1.3195e-19)
(4.87353 -1.66678 0)
(4.8368 -1.69745 0)
(5.92138 1.56767 1.92394e-20)
(6.78643 0.475449 -6.71597e-20)
(7.22268 -4.6668 0)
(5.60588 1.9328 0)
(7.17253 -3.76033 0)
(6.47693 -4.76581 4.67873e-19)
(6.44622 -4.77283 8.36301e-19)
(5.19244 0.493897 1.2625e-18)
(5.19831 0.409965 -1.1337e-18)
(2.96734 -0.967563 -3.67271e-19)
(7.82394 -4.31089 8.59274e-19)
(7.19148 -2.61883 7.98347e-20)
(1.182 -3.27678 5.01708e-18)
(7.36689 -3.72003 3.17915e-19)
(5.88444 2.41421 -1.05504e-19)
(6.14278 2.55016 5.52043e-19)
(6.66171 -0.362754 -1.51209e-19)
(6.74472 -0.352555 6.75074e-20)
(5.72721 2.99508 6.88051e-20)
(4.86804 -0.613116 9.57589e-19)
(4.47458 -3.5671 4.96594e-18)
(6.13977 1.67702 0)
(8.67239 -1.97166 1.98964e-18)
(6.91174 1.20151 1.26612e-19)
(6.43469 -1.07025 0)
(6.12343 1.20256 3.72271e-20)
(6.1731 2.00989 6.96375e-19)
(6.12927 1.96819 -1.42629e-18)
(7.33706 -0.214131 2.91493e-19)
(7.32594 -0.123387 -5.31464e-19)
(5.76865 -2.96799 -2.52657e-19)
(5.05284 1.10038 -7.21932e-19)
(6.25061 2.48302 -1.02257e-19)
(6.31755 3.11074 -1.16319e-21)
(6.66359 1.42789 9.6096e-21)
(5.7477 1.78515 1.14183e-19)
(6.28814 1.02763 0)
(2.35457 -1.90246 0)
(4.7062 -0.565426 0)
(7.72579 1.70498 1.17113e-19)
(6.90795 -0.479749 1.29958e-19)
(6.56419 -1.693 -7.24826e-20)
(6.48641 -1.79449 0)
(5.28501 0.30758 -1.11569e-18)
(5.30719 0.291761 0)
(5.1467 -3.4534 1.75574e-19)
(5.28862 -3.53723 -2.12082e-19)
(6.24015 -0.994567 0)
(7.65162 0.0295726 0)
(7.64204 0.0848431 0)
(7.0463 -4.76721 0)
(7.0072 -4.76982 0)
(6.41494 2.62463 1.21912e-20)
(6.42093 3.0116 -2.22621e-21)
(6.41394 3.04687 6.98047e-22)
(6.21688 2.47869 -1.21803e-19)
(6.67893 -1.45102 1.37701e-19)
(6.61936 -1.58855 5.59427e-20)
(6.90692 3.38181 -2.47947e-19)
(5.6514 1.88411 0)
(5.7244 1.7909 2.20683e-19)
(5.72808 1.73862 1.11541e-19)
(6.60296 1.18805 7.92978e-20)
(6.70725 1.171 -7.93284e-20)
(7.53546 -4.75668 4.48229e-18)
(7.61069 -4.72367 0)
(6.0049 2.40108 -2.7773e-20)
(6.4652 -0.927633 4.04663e-20)
(6.46487 -1.04277 0)
(2.92336 0.624742 -7.08555e-18)
(2.88794 0.582498 8.05438e-18)
(2.9175 0.741537 -3.61377e-18)
(6.93793 -4.69829 8.51599e-19)
(5.85262 -0.0450755 0)
(5.99433 -0.920426 0)
(5.70543 1.15924 2.6444e-19)
(5.70448 -2.40611 0)
(5.13402 1.09383 -7.50857e-20)
(5.19059 0.978968 8.92923e-19)
(7.27516 -4.2391 4.01324e-18)
(6.6063 -0.360851 -1.73885e-19)
(6.13368 2.41039 -1.84653e-19)
(6.82693 1.98801 6.73288e-20)
(7.38571 -0.547426 0)
(7.50024 -0.421424 0)
(5.83558 0.84113 8.78013e-21)
(6.66246 -2.06661 2.11113e-19)
(6.53806 -4.79233 -1.90842e-19)
(6.47462 1.56553 9.2305e-19)
(7.16912 0.858238 0)
(7.25509 0.859719 0)
(6.25632 -4.65065 4.97317e-19)
(6.39346 -4.68313 0)
(6.96127 -4.67839 -6.66704e-19)
(5.26715 0.734889 0)
(5.17259 0.00728377 1.64779e-19)
(3.26406 -3.20672 0)
(6.21863 2.41786 1.16299e-19)
(6.27962 -4.75086 0)
(6.21621 2.43375 5.52818e-20)
(6.2515 2.45667 -1.02766e-19)
(5.37122 -3.66534 2.44875e-19)
(5.27131 -3.76756 0)
(6.83466 -0.886877 0)
(6.80153 -0.945151 0)
(7.62806 1.30351 0)
(6.19881 2.42577 -5.81336e-20)
(6.1666 2.40879 1.80575e-19)
(6.24752 2.44383 -6.40673e-20)
(6.26391 2.4448 5.5363e-20)
(6.23334 2.43351 8.39227e-22)
(6.77154 0.941465 -7.53327e-20)
(5.32207 1.49219 0)
(8.58734 -2.01206 8.34015e-19)
(6.37665 2.81684 1.50336e-20)
(6.20062 2.64293 -3.18494e-19)
(6.17207 2.65029 0)
(5.55807 -4.46578 -3.52124e-19)
(5.54473 -4.49433 3.62287e-19)
(6.23861 1.52215 -4.81415e-22)
(4.89025 0.988863 -4.72633e-20)
(4.43471 -1.46295 -1.91465e-17)
(4.10075 -1.13197 2.13815e-17)
(5.18521 -1.81286 1.48946e-18)
(5.86396 1.72002 1.04784e-19)
(4.55296 0.483096 -2.62246e-18)
(6.02714 2.44441 -1.51811e-19)
(6.32714 2.48973 1.50003e-20)
(7.51097 -4.23328 -1.04149e-18)
(4.91133 1.65948 0)
(5.30099 -0.251782 -6.40604e-19)
(6.02719 2.50507 4.86487e-19)
(6.03651 2.49228 -6.59579e-19)
(6.00547 2.50045 -1.38984e-19)
(6.21757 -2.2104 3.28303e-20)
(6.52291 -1.37831 0)
(7.4096 -4.0253 9.67917e-19)
(6.39239 -1.43995 1.20231e-21)
(6.33247 -1.55096 3.23102e-20)
(7.06875 0.895458 1.02179e-19)
(6.87124 -4.72515 -2.73901e-21)
(6.7791 -4.73167 0)
(6.01974 -3.48252 4.35121e-19)
(7.10553 -4.48605 2.70054e-19)
(6.21081 -3.46967 1.19039e-19)
(6.63896 -4.78631 6.95955e-19)
(7.38911 -1.10595 -5.90055e-20)
(3.90383 -3.7422 -1.50132e-18)
(3.96908 -3.80674 5.17668e-21)
(1.69564 -1.43558 1.66528e-17)
(6.80031 -4.71805 2.48818e-19)
(6.77572 -4.70187 0)
(6.84794 -4.7129 -2.83839e-19)
(2.77059 0.72276 -1.01021e-17)
(5.12196 1.36788 -3.34852e-19)
(5.1107 1.4278 1.76642e-18)
(6.03564 -1.82045 0)
(6.73594 -4.72775 6.2699e-19)
(7.1247 -0.626859 -9.63483e-20)
(7.2291 -0.584603 -1.16768e-19)
(6.03125 -0.2781 -1.12887e-19)
(6.86146 1.13045 8.05787e-20)
(5.38449 3.05347 -5.08152e-19)
(3.1185 0.545793 0)
(7.48442 -4.19922 0)
(6.43939 1.64505 4.69445e-18)
(6.32794 -2.34068 -2.89709e-22)
(5.83436 2.78653 1.27292e-18)
(5.83508 2.91889 -5.76264e-19)
(6.2025 -1.01783 0)
(6.20233 -1.12507 2.22703e-20)
(6.16507 -1.18197 -7.84724e-20)
(7.14098 -4.85379 1.19837e-19)
(4.02005 -1.68979 -4.36569e-18)
(6.39116 2.81856 -1.00071e-19)
(6.26939 2.93128 4.46112e-19)
(2.25908 -0.977178 -1.33355e-17)
(6.16048 2.83694 1.3895e-18)
(5.67694 -3.85343 0)
(6.1682 3.0097 8.22741e-20)
(6.13049 3.11218 -6.77753e-20)
(7.00651 -4.74675 -4.54794e-19)
(5.39101 -0.276373 -7.66121e-19)
(6.23904 3.26529 0)
(6.20802 3.32123 -1.55096e-20)
(4.85691 0.479274 -9.66202e-19)
(4.21953 -3.64447 8.00037e-19)
(7.06413 0.800641 3.63444e-19)
(4.1548 2.0933 -2.17831e-20)
(5.4382 -4.29785 5.58415e-19)
(5.26535 -4.23189 -1.29831e-18)
(6.30998 2.64674 -3.70089e-20)
(5.96719 -0.430648 0)
(4.96026 0.00784105 -1.15742e-19)
(4.98967 -0.124726 0)
(4.9501 -0.107868 1.07756e-19)
(4.64339 1.79967 -1.65968e-18)
(6.09619 -1.80714 -1.02565e-19)
(6.1706 -1.74217 0)
(6.30558 -1.69106 1.12881e-20)
(6.30335 -1.58517 -3.26358e-20)
(6.61575 -1.51741 3.8716e-20)
(6.64477 -1.43567 -1.53226e-19)
(7.09673 -0.586786 -9.65003e-20)
(7.02132 -0.591359 9.49948e-20)
(7.13279 -0.487424 0)
(4.98393 1.03298 -3.51091e-21)
(4.9457 0.969649 -1.7163e-18)
(4.52611 0.645167 4.46195e-18)
(6.28776 -1.27694 8.65105e-21)
(6.28265 -1.38731 0)
(6.9149 -4.7511 2.37439e-19)
(6.96754 -4.75692 -2.3135e-19)
(6.31586 -4.48778 -2.955e-18)
(6.33916 -4.53443 1.4815e-18)
(5.03564 -4.13879 -6.46684e-19)
(4.91407 -4.06377 -5.62234e-19)
(7.05815 1.08362 3.44804e-19)
(6.00043 -3.92685 -1.22114e-18)
(5.85381 -3.85491 9.5867e-19)
(6.5662 -0.677909 -3.85999e-17)
(6.60441 -0.769859 -2.6726e-17)
(4.52338 -3.19596 3.18942e-20)
(4.47468 -3.19854 0)
(7.2424 -0.832146 5.256e-19)
(2.78994 -0.0405785 -2.15008e-18)