/*--------------------------------*- C++ -*----------------------------------*\
  =========                 |
  \\      /  F ield         | OpenFOAM: The Open Source CFD Toolbox
   \\    /   O peration     | Website:  https://openfoam.org
    \\  /    A nd           | Version:  6
     \\/     M anipulation  |
\*---------------------------------------------------------------------------*/
FoamFile
{
    version     2.0;
    format      ascii;
    class       volScalarField;
    location    "800";
    object      nuTilda;
}
// * * * * * * * * * * * * * * * * * * * * * * * * * * * * * * * * * * * * * //

dimensions      [0 2 -1 0 0 0 0];

internalField   nonuniform List<scalar> 
29884
(
0.276361
0.225701
0.122065
0.155995
0.156359
0.129645
0.193796
0.26396
0.213784
0.141145
0.153476
0.141699
0.153029
0.287588
0.280166
0.192007
0.287319
0.2667
0.279958
0.172701
0.278541
0.118572
0.142526
0.140649
0.144304
0.155021
0.194201
0.219303
0.150203
0.253692
0.148656
0.162938
0.195353
0.185291
0.143754
0.147362
0.249489
0.166607
0.179333
0.187682
0.231656
0.184849
0.17634
0.200846
0.183852
0.166737
0.175482
0.176304
0.136629
0.170885
0.167683
0.17426
0.192996
0.275109
0.263315
0.267572
0.187366
0.284601
0.262533
0.266907
0.19835
0.190072
0.135287
0.171045
0.166637
0.172809
0.280389
0.204031
0.302583
0.211416
0.141249
0.149599
0.143863
0.109379
0.318057
0.28137
0.234525
0.23143
0.226137
0.211564
0.180315
0.197745
0.114578
0.142327
0.127581
0.0972055
0.148762
0.156708
0.139133
0.0719504
0.144966
0.156663
0.100514
0.0634766
0.151771
0.00036547
0.139836
0.139909
0.149671
0.0661358
0.139782
0.139249
0.169705
0.177093
0.15342
0.196389
0.0780446
0.0765332
0.153809
0.138911
0.162669
7.96943e-05
0.135589
0.119494
0.141443
0.14207
0.149618
0.110952
0.147765
0.13696
0.139771
0.141094
0.161362
0.14009
0.138581
0.262045
0.225012
0.203262
0.301205
0.147708
0.143053
0.147296
0.254508
0.23769
0.134284
0.1436
0.165761
0.15211
0.163568
0.163712
0.155528
0.162013
0.173211
0.157158
0.170755
0.173837
0.160319
0.165451
0.178558
0.173869
0.171485
0.0947198
0.0830911
0.183293
0.248763
0.215344
0.19873
0.174929
0.229208
0.201031
0.188916
0.156105
0.154287
0.172905
0.000301277
0.000298317
0.204937
0.160463
0.139535
0.13939
0.212182
0.139242
0.139071
0.119889
0.120801
0.151815
0.144016
0.189025
0.142648
0.155968
0.145655
0.129014
0.131222
0.135199
0.117887
0.132004
0.139604
0.139238
0.155478
0.150304
0.155901
0.14154
0.136715
0.143517
0.146323
0.146746
0.141214
0.146814
0.151873
0.149789
0.218053
0.177389
0.153694
0.142325
0.150039
0.136287
0.144111
0.12854
0.140512
0.184644
0.174409
0.21544
0.219181
0.195124
0.257826
0.0523509
0.100832
0.0516966
0.112363
0.0390022
0.0370189
0.0570629
0.137509
0.119806
0.0853874
0.0346614
0.0633454
0.0540812
0.0105964
0.0576268
0.0690547
0.0578535
0.071153
0.0581361
0.0598806
0.0669714
0.064126
0.138066
0.170411
0.0342845
0.0459659
0.000621603
0.0529589
0.0454104
0.0560506
0.123562
0.0656437
0.0562687
0.122735
0.0919626
0.059137
0.0780443
0.114609
0.111346
0.0372629
0.0371814
0.0442595
0.0416301
0.107965
0.112091
0.0935758
0.102733
0.0326929
0.000866445
0.082314
0.0536643
0.0579546
0.122917
0.122571
0.0531027
0.0870182
0.0884763
0.0471783
0.0493755
0.0443218
0.0767108
0.0714551
0.0541976
0.0575932
0.0404571
0.169829
0.0719284
0.129512
0.0902339
0.138294
0.116842
0.116603
0.0479197
0.000246363
0.137822
0.048679
0.0701866
0.0704836
0.0368544
0.0571847
0.0576577
0.108501
0.0704489
0.0714353
0.0489019
0.0885166
0.0657184
0.0679642
0.0668134
0.0537005
0.0595747
0.0753302
0.131657
0.111178
0.112119
0.112846
0.110326
0.0419882
0.0270946
0.0288435
0.0599353
0.0594645
0.0663125
0.0678913
0.0606561
0.0796234
0.0637516
0.0584914
0.0586515
0.0620166
0.0893157
0.0408703
0.0420126
0.0441293
0.0389562
0.111259
0.112818
0.112953
0.111349
0.0517516
0.0484449
0.137714
0.11305
0.0477309
0.0459557
0.0598429
0.121406
0.0422313
0.111673
0.135646
0.0465788
0.0505206
0.0488393
0.0482079
0.0721991
0.0714012
0.065317
0.0869742
0.0879237
0.0855501
0.0625659
0.0570561
0.0541681
0.0553123
0.0576714
0.0633966
0.0737586
0.132713
0.12138
0.109971
0.11016
0.120531
0.133044
0.000472519
0.040461
0.0590625
0.0594817
0.136965
0.1443
0.12941
0.100039
0.0954387
0.0613365
0.0582375
0.0603105
0.0570765
0.117211
0.12686
0.122647
0.131571
0.0528122
0.0568866
0.0548306
0.0547387
0.0890603
0.0852861
0.0835814
0.0911864
0.0589735
0.0601355
0.0600912
0.0572028
0.0564609
0.0552603
0.0506582
0.0832405
0.0709149
0.0923543
0.0848064
0.0881678
0.0897547
0.0332179
0.137275
0.138507
0.139473
0.13873
0.0465552
0.0499726
0.0477101
0.0469646
0.0449839
0.0595068
0.0943825
0.0365837
0.0426491
0.0464191
0.0286266
0.0533116
0.0567281
0.0504383
0.0717907
0.0794486
0.0738665
0.0763666
0.0500748
0.0553042
0.0531273
0.0521625
0.130024
0.0641997
0.0617918
0.0663919
0.0602065
0.0585209
0.0623317
0.0626009
0.0654457
0.0653578
0.0624979
0.151364
0.150036
0.135437
0.0608728
0.0599716
0.0605689
0.0599492
0.122125
0.137905
0.0753345
0.0849964
0.130541
0.145253
0.139385
0.130583
0.170504
0.00586889
0.124295
0.125714
0.075466
0.0531954
0.0546789
0.0561876
0.0522278
0.081596
0.0905292
0.0865312
0.0860566
0.137956
0.137769
0.138021
0.139688
0.139629
0.165697
0.151153
0.157539
0.158899
0.140619
0.144599
0.142519
0.142455
0.0447411
0.0427738
0.0411271
0.0456666
0.104086
0.102923
0.106595
0.044778
0.0419831
0.0420266
0.0444736
0.136976
0.13472
0.136232
0.000630919
0.0043886
0.138699
0.0107013
0.119892
0.139544
0.138725
0.000919181
0.00150607
0.139049
0.139065
0.13924
0.138905
0.0849003
0.13855
0.135453
0.000253824
0.000291204
0.137332
0.056147
0.22977
0.139347
0.256161
0.126344
0.140662
0.138831
0.000589081
0.141317
0.134124
0.140295
0.137812
0.0658042
0.134941
0.137866
0.122996
0.134691
0.144438
0.129626
0.124425
0.17026
0.210823
0.24078
0.108061
0.109132
0.13909
0.139067
0.139766
0.139621
0.13016
0.00587455
0.128462
0.121748
0.104532
0.139169
0.126714
0.139145
0.139136
0.1391
0.00271302
0.138433
0.138649
0.0615731
0.0726393
0.0739467
0.122686
0.243836
0.209342
0.132179
0.128281
0.13031
0.10192
0.107186
0.12768
0.128426
0.18438
0.2048
0.128559
0.25223
0.138263
0.138351
0.253174
0.206914
0.000841863
0.12647
0.261618
0.096121
0.141815
0.142988
0.000373322
0.0761389
0.0698116
0.137504
0.139604
0.139401
0.135952
0.12115
0.13133
0.12961
0.0397953
0.0397034
0.144065
0.141496
0.145022
0.139553
0.139292
0.000921122
0.13897
0.137361
0.136099
0.137831
0.138095
0.138316
0.183995
0.133389
0.136298
0.130194
0.132786
0.160415
0.16622
0.199391
0.177053
0.121092
0.137574
0.133391
0.141404
0.160305
0.151975
0.145734
0.159858
0.15002
0.146661
0.123386
0.119504
0.0564613
0.0519293
0.0480233
0.0386424
0.139026
0.140687
0.142156
0.253551
0.194468
0.0871003
0.0934214
0.200683
0.171875
0.19676
0.145555
0.159313
0.153803
0.164535
0.234691
0.189095
0.181571
0.0562634
0.0578183
0.138775
0.138579
0.139575
0.138307
0.156934
0.111398
0.114745
0.118427
0.137593
0.1382
0.137575
0.13766
0.137253
0.139691
0.162099
0.153535
0.132892
0.139512
0.142427
0.145096
0.13561
0.136188
0.212476
0.268105
0.238077
0.109253
0.11364
0.116082
0.00433905
0.00474814
0.136194
0.133595
0.0651904
0.0609731
0.165903
0.168754
0.162027
0.0371099
0.0349571
0.0889667
0.0880267
0.037777
0.0409322
0.0427246
0.0902798
0.0802367
0.0891207
0.0292232
0.104376
0.00590063
0.040563
0.0168628
0.0604269
0.0346762
0.0129896
0.0728893
0.0519758
0.00757095
0.0134304
0.0142459
0.0894339
0.0897579
0.0863066
0.0640549
0.0641319
0.0912744
0.068193
0.0670028
0.0294525
0.0885696
0.0873772
0.0523398
0.0552545
0.0550078
0.0627629
0.0969513
0.0972744
0.0476019
0.0826411
0.083096
0.0233504
0.00277651
0.0373485
0.039317
0.0328259
0.111863
0.0945395
0.0245259
0.0569419
0.0265863
0.0811918
0.076435
0.102509
0.010551
0.070798
0.070342
0.106513
0.0754938
0.0836793
0.0608533
0.0615035
0.0730708
0.0941214
0.0838264
0.0307228
0.103438
0.0221101
0.0263907
0.106038
0.0970926
0.0452144
0.0668603
0.0383837
0.043847
0.0278363
0.0601259
0.0622119
0.0923744
0.00148646
0.0449862
0.0706979
0.0766493
0.0565354
0.0554275
0.0944555
0.045943
0.0463164
0.0444414
0.00146231
0.0681155
0.0360859
0.0367738
0.0219323
0.0711643
0.0704321
0.0405123
0.0421727
0.0295766
0.0301289
0.0634056
0.06862
0.0591216
0.0758207
0.073054
0.104438
0.0507425
0.00828064
0.0665143
0.0668181
0.0349164
0.07581
0.0814648
0.0197068
0.00161379
0.0530416
0.0349821
0.100429
0.0998236
0.0450624
0.0415477
0.0719341
0.0728193
0.058507
0.0107741
0.0555256
0.0386435
0.0365394
0.0332677
0.0564062
0.0503676
0.00213736
0.0358158
0.0883738
0.011463
0.0113702
0.0957611
0.0957846
0.118827
0.0852039
0.0889973
0.00882211
0.101694
0.0907465
0.0800236
0.0628826
0.0583858
0.0882797
0.0501416
0.0472126
0.0861502
0.0066476
0.0144353
0.0513662
0.102172
0.0701032
0.0534535
0.0575206
0.073902
0.0904953
0.0857271
0.0853326
0.0481442
0.0857022
0.0713323
0.0687329
0.0863852
0.0828886
0.0616251
0.0362264
0.0348165
0.0341542
0.0623855
0.0684532
0.0335415
0.07111
0.0683039
0.085549
0.0823565
0.0513375
0.0347123
0.0937691
0.0955225
0.0439143
0.136257
0.107658
0.0835693
0.0856429
0.0537129
0.0846465
0.0625394
0.104064
0.0698573
0.0864369
0.0872143
0.0513132
0.0978686
0.0368337
0.0817055
0.0664017
0.0688141
0.0705296
0.0471772
0.0732349
0.0718153
0.0602333
0.135333
0.0869112
0.0311761
0.0303124
0.0688107
0.0749316
0.0727782
0.0831264
0.078076
0.0763825
0.0484308
0.0389539
0.0365031
0.00975789
0.0779412
0.0778396
0.0810693
0.101516
0.100493
0.0988698
0.0999842
0.0659432
0.063891
0.0279408
0.0634009
0.0642923
0.0633729
0.0561605
0.109148
0.0183726
0.0784248
0.063442
0.0594851
0.0270153
0.105802
0.0704166
0.0845346
0.0854104
0.0388167
0.0403614
0.0688653
0.083183
0.0392492
0.0866555
0.0869748
0.0619643
0.0881839
0.0359942
0.00500375
0.126084
0.124372
0.104917
0.0763425
0.0783946
0.0816544
0.0827017
0.0772474
0.103445
0.0189726
0.0222954
0.0898583
0.079184
0.073001
0.0881734
0.0655375
0.0615782
0.0993242
0.0468459
0.0426721
0.0894013
0.0897633
0.0526017
0.0296003
0.0295201
0.101924
0.102809
0.0160775
0.0208652
0.015269
0.0882078
0.0444791
0.0662584
0.0671475
0.00894859
0.00650415
0.099857
0.0992684
0.101287
0.0599958
0.055451
0.0676559
0.0510273
0.0775904
0.0608722
0.0602807
0.0629152
0.0275081
0.0288964
0.129601
0.100771
0.0176363
0.0168351
0.109489
0.109142
0.0698459
0.0703402
0.0701147
0.0634764
0.0614957
0.00434545
0.0686028
0.0578762
0.105793
0.0221146
0.0217991
0.0169028
0.033801
0.0409632
0.0378612
0.0859299
0.035102
0.0943585
0.0956769
0.115556
0.109727
0.0680197
0.0329027
0.0336113
0.0424172
0.0445816
0.10047
0.0999045
0.0986547
0.0512016
0.0565907
0.0673226
0.0235321
0.0329218
0.0976764
0.0414863
0.0425942
0.0728733
0.0757062
0.0905396
0.0593998
0.0610206
0.0623953
0.0534432
0.105577
0.106188
0.104599
0.107045
0.108635
0.0643789
0.108617
0.0102305
0.0370101
0.0422222
0.0265288
0.0272271
0.0786091
0.0795416
0.0640873
0.0665698
0.08715
0.0877182
0.0844589
0.0858399
0.0819341
0.0479108
0.0463466
0.0334401
0.0596215
0.0325732
0.0686643
0.0695339
0.0680262
0.00701553
0.0666326
0.106088
0.103477
0.0745391
0.0731054
0.0758711
0.100499
0.10275
0.0428595
0.0453326
0.044664
0.0434344
0.0579372
0.0536618
0.0586835
0.0947952
0.0942688
0.0941094
0.095863
0.0880752
0.0297362
0.0420454
0.0381818
0.0517347
0.0486202
0.0351717
0.105515
0.0734253
0.0763258
0.0740906
0.106965
0.104056
0.0916389
0.0964578
0.0626366
0.0601606
0.0630341
0.0430087
0.0414683
0.0443355
0.0849178
0.0511559
0.0901224
0.0889999
0.104606
0.0432109
0.0907775
0.0913398
0.0909292
0.0363421
0.000946095
0.0643134
0.0647326
0.0627423
0.0120455
0.000406178
0.102074
0.0522045
0.107819
0.0606919
0.0633075
0.0776261
0.0807304
0.0789549
0.112515
0.0148053
0.0759555
0.0756207
0.0783349
0.0543472
0.101015
0.0996721
0.10198
0.104804
0.105548
0.000662293
0.0766347
0.0741721
0.10015
0.102882
0.0981241
0.000833915
0.000786648
0.0918674
0.0395396
0.033831
0.0635065
0.0667424
0.0662411
0.0638639
0.0873813
0.0499972
0.048447
0.0707134
0.000602199
0.086693
0.087978
0.0800197
0.0787974
0.101476
0.0256364
0.0676916
0.0661012
0.0981402
0.0984321
0.0302453
0.0856725
0.0863667
0.0863324
0.0894448
0.0887625
0.102316
0.0869866
0.0947634
0.0540131
0.0019512
0.0434036
0.0648544
0.000563817
0.0357736
0.0915384
0.076759
0.0104346
0.0768529
0.0745148
0.0940503
0.0962198
0.0873362
0.0832887
0.058609
0.0594413
0.0558765
0.0772003
0.0783868
0.0767551
0.0907558
0.0913823
0.00093391
0.0238169
0.000503555
0.0848073
0.00945807
0.136061
0.136243
0.136374
0.136019
0.103714
0.0803503
0.0793194
0.137853
0.138183
0.0872401
0.0783329
0.076759
0.0765635
0.0563421
0.0935198
0.0725916
0.0754216
0.0933247
0.0894433
0.0506555
0.0471654
0.0481737
0.000532817
0.0573794
0.0590603
0.0604644
0.0562549
0.0905767
0.0915282
0.0325043
0.0933732
0.0949173
0.0888008
0.0653532
0.06612
0.0642495
0.0490412
0.0470182
0.0510689
0.0491988
0.0481586
0.128083
0.0642697
0.0514058
0.0496582
0.10228
0.103644
0.0923702
0.0923831
0.0931376
0.0916538
0.0915551
0.0902752
0.0973485
0.0651433
0.0661983
0.0634121
0.0982961
0.096043
0.000323402
0.063445
0.0655514
0.0321019
0.0281177
0.000440301
0.000627417
0.000614418
0.0398227
0.0392296
0.0186699
0.0190427
0.113372
0.0986259
0.104992
0.0716077
0.039182
0.0294917
0.0283195
0.0321092
0.0643403
0.0650848
0.0650135
0.0645439
0.000444854
0.000755573
0.000763867
0.00129427
0.0093089
0.019651
0.0577316
0.0560365
0.00080188
0.0535116
0.0258349
0.0919269
0.0916852
0.0942704
0.0908481
0.0915555
0.090542
0.105311
0.106864
0.10418
0.102423
0.0960875
0.064049
0.0655992
0.0632757
0.0677974
0.0696672
0.0651393
0.116395
0.104916
0.109999
0.0942376
0.0951601
0.0952282
0.100162
0.0833527
0.0844
0.0823884
0.0675971
0.0718463
0.0715428
0.0810558
0.0800136
0.0801371
0.000414046
0.000684975
0.0890882
0.0899981
0.0895075
0.0895443
0.0381998
0.0762332
0.0760169
0.0747406
0.0915428
0.0928723
0.093289
0.0909953
0.0594262
0.0604528
0.0581168
0.177494
0.0401129
0.070572
0.0705867
0.0701174
0.0710739
0.0783221
0.0843373
0.0931027
0.0950584
0.105689
0.103805
0.0318951
0.128439
0.0330603
0.0314896
0.105546
0.000367632
0.065199
0.0718672
0.10548
0.106243
0.104409
0.0832141
0.0842223
0.0119396
0.0437991
0.0431835
0.0452899
0.053699
0.0555379
0.0508572
0.0589434
0.0616679
0.0610298
0.00661834
0.006821
0.0675449
0.0679644
0.0707293
0.0695968
0.0719191
0.000344114
0.0570287
0.000575171
0.101459
0.0620327
0.0591231
0.0616511
0.0586769
0.00209791
0.0616425
0.0640517
0.0618749
0.0988514
0.0758205
0.0874576
0.0857801
0.0686737
0.0681057
0.0675316
0.0690945
0.042771
0.0397242
0.0417396
0.0404215
0.0627598
0.0613665
0.0632278
0.0618537
0.00119554
0.00745187
0.0897079
0.0901232
0.0893372
0.0904291
0.0772014
0.0796539
0.0798279
0.0338244
0.0669782
0.0666113
0.0680248
0.0942398
0.0924726
0.0940662
0.0947833
0.0967663
0.0954216
0.0969503
0.0982479
0.0598737
0.0576122
0.0572155
0.0601759
0.103146
0.104958
0.104268
0.103698
0.0530408
0.0513782
0.0552051
0.0517035
0.0505043
0.10425
0.104295
0.10321
0.0571898
0.0540373
0.0699846
0.0715261
0.120716
0.119115
0.119418
0.120494
0.0814686
0.0779766
0.0790926
0.059826
0.0645405
0.0526386
0.0499665
0.0494654
0.0322669
0.0900016
0.0871879
0.0652723
0.0765758
0.0766894
0.0570421
0.0860001
0.0879751
0.0877656
0.0860354
0.00125537
0.077461
0.0798842
0.0776383
0.079635
0.137071
0.137222
0.0767911
0.0738272
0.0744679
0.0761026
0.0591432
0.0603082
0.0568313
0.0450908
0.0482639
0.0441759
0.0673415
0.0705448
0.068015
0.0699612
0.0746278
0.105112
0.0912668
0.0483779
0.0478463
0.0493635
0.0468285
0.0095033
0.109271
0.00935666
0.00934705
0.0924787
0.0917562
0.0918095
0.0923812
0.0632456
0.0724527
0.0721275
0.103048
0.10262
0.102824
0.100533
0.0841622
0.0718163
0.0722718
0.0715537
0.0618425
0.0584648
0.0599971
0.060226
0.0467412
0.0883877
0.0877374
0.0216
0.0258701
0.0718473
0.0693728
0.0710189
0.00110197
0.0506433
0.107038
0.0738997
0.0733525
0.0753168
0.098595
0.0394684
0.0372972
0.0409362
0.111007
0.108359
0.109774
0.0725409
0.0726687
0.128607
0.129644
0.0579997
0.0587539
0.0600487
0.0989857
0.0952377
0.0892088
0.0235106
0.0281367
0.0260294
0.0209476
0.020442
0.0117182
0.00968828
0.0150612
0.0746598
0.0849067
0.0870945
0.0774987
0.0757806
0.0797757
0.101705
0.100598
0.0708004
0.070929
0.0921373
0.092632
0.0618623
0.0645964
0.104023
0.118849
0.0964496
0.0972866
0.0833757
0.0857471
0.0819019
0.0854413
0.0873603
0.0863721
0.0228926
0.0274403
0.0926802
0.0897329
0.0910848
0.0914435
0.073413
0.0706069
0.0721236
0.0728474
0.0447349
0.0441045
0.0460249
0.0427097
0.000896012
0.0749518
0.076033
0.0771266
0.0735739
0.0693527
0.0476547
0.0452445
0.103109
0.101806
0.103649
0.0758793
0.0821139
0.0715834
0.0723259
0.0723545
0.0717551
0.0501936
0.0921914
0.0911337
0.06266
0.0623055
0.0639915
0.0609646
0.0678121
0.0683907
0.0663428
0.0120321
0.0130981
0.0102139
0.0826575
0.0842559
0.0801688
0.0464482
0.0445678
0.0751066
0.0719437
0.0656455
0.0664842
0.0680604
0.0967374
0.0552298
0.0575987
0.0578577
0.0793178
0.0453116
0.0426959
0.0439419
0.0439824
0.111279
0.109393
0.109526
0.111048
0.0783719
0.0658459
0.0665912
0.0654495
0.0672163
0.102177
0.0923446
0.0919868
0.0930498
0.0913788
0.090705
0.0916801
0.0921526
0.090368
0.0346043
0.0763071
0.0765436
0.0711388
0.0716912
0.000556519
0.0122434
0.0705296
0.070004
0.0898383
0.0912762
0.0622179
0.0616117
0.0636761
0.0684875
0.0680393
0.00625617
0.00755123
0.0744875
0.0715283
0.0729296
0.0731491
0.0864588
0.088348
0.0873594
0.0879553
0.00925052
0.0685501
0.0680609
0.0698896
0.0667173
0.0467155
0.048469
0.0464354
0.0486053
0.0842442
0.0838778
0.0832374
0.0830611
0.0395982
0.038441
0.0376784
0.0402002
0.027071
0.0281716
0.0693589
0.102616
0.102957
0.102881
0.057068
0.0599328
0.0592386
0.057603
0.0889805
0.0896289
0.081402
0.0831832
0.0835101
0.0809285
0.0490453
0.0700644
0.0704185
0.0496276
0.0229913
0.0205508
0.0620383
0.0646819
0.0920178
0.0912887
0.0934579
0.0985448
0.0978911
0.0975225
0.0313522
0.0299246
0.0308482
0.0814261
0.0832545
0.0836331
0.0810241
0.0347712
0.0506011
0.0505404
0.0521889
0.0490015
0.0040808
0.0352287
0.0550485
0.0576426
0.0821982
0.0837218
0.0843237
0.0814417
0.128285
0.089402
0.088659
0.0886921
0.0893107
0.0845571
0.0868929
0.0833071
0.056242
0.0914145
0.0907687
0.0914437
0.0764925
0.0811301
0.0504964
0.0545721
0.0527575
0.0669447
0.0667886
0.0677282
0.109135
0.0367548
0.0819471
0.0506104
0.0465231
0.0884416
0.0877429
0.0911186
0.0198756
0.0168709
0.0217321
0.0953474
0.070045
0.0707201
0.0697993
0.0511787
0.0497884
0.087403
0.0850051
0.0856618
0.0868652
0.0911978
0.0906698
0.0437487
0.0456953
0.0906722
0.0889271
0.090716
0.0886481
0.124055
0.124476
0.0653969
0.0894402
0.0892907
0.0891498
0.0728837
0.0738544
0.0726326
0.0225322
0.054678
0.0541348
0.0564697
0.0525909
0.0702219
0.0740279
0.0724584
0.0717986
0.0590787
0.0555697
0.0577434
0.131547
0.116786
0.12962
0.121351
0.0325995
0.0799266
0.0789904
0.11415
0.115764
0.0527683
0.0518924
0.0508879
0.0537335
0.0906903
0.0899426
0.120563
0.11873
0.06126
0.090494
0.0927485
0.0926797
0.0432487
0.0396814
0.0424446
0.0396308
0.0270731
0.0297074
0.0602271
0.0624015
0.060794
0.0504884
0.0455582
0.0485512
0.0479595
0.0840853
0.0828299
0.108562
0.098425
0.062029
0.0643576
0.0635685
0.0624325
0.0965975
0.0337203
0.0356761
0.0376181
0.0324739
0.10771
0.105924
0.108646
0.0335702
0.0349751
0.035464
0.0358942
0.0345579
0.0368413
0.0742125
0.0772645
0.0414357
0.0429941
0.0954428
0.0649688
0.0898604
0.088644
0.0824381
0.00476944
0.10849
0.107076
0.107812
0.0634997
0.0295738
0.0597332
0.107072
0.0973532
0.0935765
0.113727
0.0784985
0.0793519
0.0784577
0.0531466
0.054662
0.000284871
0.0528527
0.0532161
0.114988
0.113026
0.113644
0.11441
0.0896643
0.0920014
0.0918316
0.0897487
0.102663
0.103663
0.101956
0.10424
0.0392721
0.0397019
0.0408947
0.0381581
0.100417
0.0997114
0.100908
0.0990582
0.0530618
0.055079
0.0501808
0.0285902
0.0352463
0.0425924
0.0698196
0.0685998
0.12353
0.122332
0.055359
0.0256882
0.0941114
0.0946632
0.0950758
0.0516294
0.0671093
0.0658781
0.0645193
0.0682591
0.10409
0.0974035
0.0954088
0.0957581
0.0970114
0.0479554
0.044572
0.0467946
0.0454849
0.087952
0.0875345
0.0882094
0.0872425
0.075745
0.0741529
0.0745855
0.0752973
0.105697
0.105588
0.106319
0.104885
0.0541731
0.050653
0.0532826
0.0513652
0.0700623
0.0678716
0.064042
0.0628808
0.0631228
0.0634224
0.114533
0.117315
0.115761
0.101178
0.0714783
0.0704546
0.0707312
0.0557038
0.0540104
0.055175
0.0529463
0.0517086
0.0514163
0.0503017
0.0237666
0.101201
0.100362
0.000271387
0.0723967
0.0748242
0.0724493
0.0746381
0.0881406
0.0727367
0.0841721
0.0580779
0.00496755
0.00464871
0.00574866
0.0687059
0.0694118
0.128021
0.0653286
0.0646245
0.0550751
0.0535524
0.0547188
0.0589792
0.0608549
0.0598366
0.0604529
0.0733989
0.0732567
0.0732046
0.0906181
0.0935638
0.0401008
0.0421003
0.0409253
0.000243535
0.0591018
0.0598326
0.109967
0.108454
0.0677348
0.0690579
0.0662443
0.0703711
0.0294134
0.0323322
0.0344484
0.0367896
0.118824
0.117661
0.0694546
0.0682467
0.0702204
0.0675959
0.0587998
0.0661171
0.0647254
0.110604
0.10802
0.109172
0.109383
0.0852668
0.0844048
0.0855844
0.083942
0.0824674
0.0838635
0.0837288
0.0825021
0.0751968
0.0755726
0.0742915
0.0322543
0.0329207
0.0334328
0.0316643
0.0556066
0.0576107
0.111381
0.033929
0.0384737
0.0372399
0.00128884
0.0609892
0.0586252
0.0601649
0.0742377
0.072544
0.080604
0.0815042
0.0802701
0.0817406
0.0416796
0.0378638
0.0861276
0.0858413
0.0853126
0.086623
0.116659
0.117637
0.118105
0.116116
0.0592284
0.0612401
0.0587605
0.0619088
0.0735746
0.0732369
0.0739349
0.0630851
0.0642943
0.0652565
0.0620042
0.0853301
0.0856408
0.0842798
0.0536239
0.0879129
0.0871461
0.0880401
0.0870893
0.0291185
0.0462097
0.0203055
0.01127
0.091295
0.00461713
0.00329031
0.00301677
0.0290364
0.0566377
0.0149364
0.000565646
0.000777628
0.000545579
0.000302644
0.0409883
0.000392578
0.000449141
0.0103823
0.0102394
0.0614062
0.0118474
0.0107196
0.138834
0.0169015
0.128899
0.0154473
0.0303233
0.0303134
0.0140888
0.000465567
0.0808454
0.0139545
0.00653502
0.00689208
0.00973355
0.135311
0.13708
0.0168741
0.0182547
0.0428313
0.00283161
0.0881554
0.137299
0.0920931
0.122604
0.11913
0.0777605
0.00334776
0.01932
0.000399571
0.000587522
0.000559432
0.02437
0.0228888
0.00679072
0.0243198
0.00287338
0.00340618
0.0229951
0.000559256
0.0896469
0.0474247
0.138685
0.138563
0.000465059
0.0323431
0.0305002
0.0136451
0.00748495
0.0350696
0.0345975
0.0357883
0.0702274
0.0728063
0.00675209
0.0731558
0.137577
0.137234
0.03105
0.000512989
0.00520502
0.00414993
0.0715165
0.0120972
0.025452
0.000489772
0.0296556
0.0236281
0.13023
0.00321192
0.0152129
0.0131557
0.138406
0.114145
0.00424002
0.0801527
0.0378427
0.0077613
0.135244
0.0395837
0.00229183
0.0351934
0.0341007
0.00891842
0.0203513
0.0211777
0.0229259
0.0185606
0.0264046
0.0342495
0.035278
0.036505
0.00172278
0.0197007
0.0508114
0.136204
0.0173376
0.118982
0.024953
0.154686
0.000582286
0.022041
0.0209766
0.021994
0.0970774
0.037532
0.0385385
0.00625882
0.000374406
0.00141534
0.00276153
0.0751395
0.0730083
0.0214359
0.0285257
0.00499036
0.00621163
0.00293205
0.0308077
0.0328399
0.170637
0.00207334
0.137254
0.137662
0.0535786
0.0192977
0.0350926
0.0846523
0.0829623
0.0345306
0.0330089
0.0518137
0.0402583
0.00821396
0.00667815
0.0578371
0.020098
0.0255997
0.0514522
0.0521782
0.0494346
0.00520886
0.00928499
0.0713454
0.070735
0.0455608
0.0420209
0.0275102
0.0337102
0.0347709
0.0755943
0.0038259
0.00391175
0.0463448
0.138616
0.00623353
0.00816758
0.00723419
0.00310385
0.00418733
0.00686468
0.00899156
0.0179662
0.00380738
0.00717064
0.00951306
0.00421734
0.00571839
0.0304804
0.0297932
0.0461663
0.00741862
0.0102166
0.0355899
0.000482028
0.000816299
0.0306442
0.00297748
0.0325488
0.029247
0.0241958
0.0231422
0.00868343
0.0086422
0.00934272
0.0120071
0.123406
0.00845181
0.0778637
0.0769501
0.0767432
0.05943
0.0431434
0.00621986
0.0196511
0.00829531
0.131306
0.0416631
0.00253915
0.0117553
0.0110134
0.0134618
0.0100644
0.00676441
0.140007
0.0353857
0.0379286
0.00695138
0.00546103
0.0905684
0.0704543
0.177009
0.172592
0.00734521
0.0253703
0.138803
0.0368833
0.0368503
0.000550719
0.00774929
0.018615
0.1176
0.120152
0.0137963
0.0738908
0.00944095
0.00818736
0.00931963
0.00437854
0.0610355
0.0670202
0.0703138
0.00148721
0.0351318
0.154666
0.153028
0.114783
0.0819023
0.0254982
0.0550167
0.0513462
0.0705769
0.139187
0.139064
0.0365582
0.137554
0.00172395
0.00217206
0.00915625
0.0251095
0.0145022
0.0408736
0.0409454
0.0394579
0.0395333
0.00441827
0.00363138
0.00250883
0.175274
0.0816904
0.0115507
0.120963
0.12975
0.130298
0.0543183
0.0716319
0.0695875
0.166203
0.148128
0.00138113
0.00760559
0.0917131
0.0898212
0.0068783
0.00628522
0.0440291
0.0432981
0.0811471
0.0792332
0.075574
0.0790786
0.0417388
0.0260498
0.0243001
0.0873324
0.0365076
0.0362026
0.0463754
0.0286793
0.0355144
0.0232233
0.00478251
0.0407578
0.0049488
0.163805
0.0105404
0.0117777
0.0299362
0.0569879
0.0383438
0.0292154
0.100829
0.0937897
0.109314
0.0305699
0.0817135
0.0230662
0.138124
0.0509448
0.00172652
0.0372752
0.00367536
0.00378698
0.137751
0.0303954
0.0302768
0.0254262
0.137695
0.120748
0.128646
0.03581
0.0575453
0.0590726
0.0780261
0.0788634
0.0549334
0.0330876
0.035986
0.0338872
0.0355152
0.104436
0.0907999
0.13609
0.136616
0.0905536
0.0899897
0.0699731
0.00721531
0.0061917
0.0750462
0.0164868
0.136702
0.0634355
0.0655039
0.0673909
0.0637612
0.0616915
0.0632264
0.13038
0.146942
0.139233
0.0743864
0.0723185
0.0730507
0.122527
0.00935499
0.0454067
0.0393617
0.0153109
0.0149816
0.0987825
0.0348061
0.0540939
0.0582378
0.0353744
0.170451
0.0196512
0.0384626
0.0218026
0.0294378
0.0103923
0.0232849
0.0239042
0.121773
0.124217
0.123159
0.0397484
0.0408748
0.0116124
0.069079
0.023698
0.0231808
0.0327302
0.0293227
0.028853
0.0541731
0.0714334
0.0514465
0.053795
0.132972
0.127049
0.00184256
0.00243248
0.138735
0.0257505
0.00941486
0.0124139
0.119085
0.117578
0.138574
0.110029
0.138673
0.133033
0.132269
0.0201896
0.0377038
0.126177
0.127055
0.124959
0.12558
0.05766
0.0565246
0.0959792
0.0981977
0.12578
0.123558
0.00320133
0.118912
0.117805
0.0515812
0.138933
0.138765
0.138708
0.112768
0.109377
0.137683
0.1397
0.138339
0.0780075
0.0403266
0.0429164
0.0433237
0.059385
0.0599079
0.0602593
0.17428
0.172546
0.0866261
0.0442074
0.04607
0.176371
0.173781
0.0498166
0.0502888
0.0471336
0.031213
0.000346802
0.00288913
0.0771792
0.0167562
0.0197036
0.0210551
0.0757368
0.000868689
0.00166467
0.0806783
0.082568
0.0260332
0.00805567
0.0121279
0.0140079
0.00554061
0.0389456
0.0398487
0.043435
0.113255
0.114989
0.0277541
0.0141058
0.0151273
0.00614692
0.00698594
0.129546
0.127732
0.157942
0.165343
0.167201
0.109131
0.0613479
0.0605581
0.0540803
0.056983
0.0562611
0.0787012
0.0904527
0.0549735
0.0521691
0.0295431
0.0313056
0.138696
0.138621
0.24268
0.227087
0.0470546
0.00796657
0.0477344
0.0105582
0.0179666
0.0157942
0.0157374
0.00718619
0.146327
0.0352904
0.0407395
0.0512221
0.0488771
0.0599176
0.0611885
0.0585176
0.0568246
0.0536698
0.0490028
0.0240853
0.016867
0.0427177
0.0143375
0.0341915
0.136688
0.0128279
0.0136449
0.165023
0.166085
0.0435707
0.0380665
0.0346818
0.00946119
0.0370181
0.0381997
0.0741552
0.0488948
0.0475602
0.0586165
0.0240379
0.000500643
0.051542
0.0529196
0.0164778
0.0129027
0.0153968
0.0819804
0.0827566
0.0818422
0.0472393
0.0922941
0.0922357
0.0728257
0.0707822
0.133736
0.097357
0.0981023
0.0506542
0.0538835
0.0534986
0.0525553
0.0749213
0.0111616
0.139915
0.139684
0.139895
0.135234
0.0705398
0.0206061
0.0221827
0.0288303
0.0255831
0.0574103
0.0374821
0.0403597
0.0514994
0.0558503
0.0444289
0.0426291
0.0985642
0.104223
0.108693
0.0291698
0.0289848
0.0424467
0.0427428
0.0418757
0.0726013
0.0789022
0.0873222
0.128351
0.0377288
0.00536039
0.00602302
0.13539
0.0237066
0.066334
0.00451564
0.0353782
0.0328791
0.0356898
0.0195358
0.025825
0.0680694
0.0198553
0.0169829
0.0154171
0.0941883
0.0327158
0.00102424
0.00205489
0.0665815
0.138288
0.102919
0.103482
0.0468912
0.111815
0.1068
0.019509
0.0202807
0.0447646
0.0423985
0.0440819
0.0787043
0.020878
0.0219114
0.140026
0.140511
0.0384534
0.0218564
0.020008
0.0497274
0.138834
0.0916001
0.0896717
0.0552103
0.0772193
0.0354244
0.00473608
0.00231151
0.00501819
0.0452049
0.0922593
0.00553331
0.183059
0.00240004
0.00450864
0.00689563
0.00430712
0.00362431
0.0038046
0.00264783
0.00585929
0.129071
0.0363912
0.037898
0.035716
0.0568236
0.101808
0.0998298
0.139413
0.13953
0.139338
0.070873
0.0948558
0.0933777
0.0675925
0.0655424
0.0631605
0.0483883
0.0487531
0.0662882
0.0644111
0.0240796
0.0262644
0.0291122
0.145547
0.150595
0.138198
0.137999
0.0478812
0.120016
0.116225
0.0323012
0.0348916
0.137619
0.137293
0.00640231
0.0965425
0.0948708
0.139081
0.138815
0.00899409
0.133936
0.065626
0.0722962
0.0543891
0.0411906
0.0193372
0.00394377
0.03438
0.093786
0.0762084
0.076801
0.0293522
0.0339947
0.0358215
0.0033339
0.0685299
0.0692125
0.0604492
0.124732
0.125233
0.1262
0.0384434
0.0571743
0.0616688
0.0622778
0.0603849
0.0550383
0.105601
0.107292
0.0431215
0.0536026
0.0540038
0.0525074
0.0512867
0.05326
0.00130164
0.112693
0.11378
0.115824
0.025485
0.02346
0.062908
0.0622259
0.136767
0.136694
0.0415903
0.045855
0.126708
0.127557
0.0625542
0.0630042
0.0612686
0.231522
0.18757
0.0796801
0.0779463
0.0202428
0.0225937
0.12113
0.0641779
0.0654282
0.131475
0.13068
0.129862
0.0384755
0.0415593
0.138484
0.138198
0.0674008
0.0660356
0.0680517
0.0499227
0.0471042
0.108061
0.107671
0.106587
0.0232032
0.0284253
0.0687339
0.0691444
0.0187476
0.138107
0.138283
0.0657248
0.126892
0.122998
0.0273114
0.0622879
0.0655493
0.0407999
0.041775
0.0365138
0.138305
0.118241
0.102912
0.109535
0.114997
0.0311115
0.0802006
0.138209
0.0191435
0.00261457
0.00544528
0.0616226
0.0619134
0.0149312
0.0699009
0.0543532
0.050389
0.120581
0.153189
0.0476455
0.0502439
0.0338924
0.0632135
0.0673735
0.0133742
0.0678221
0.0662
0.0642648
0.00859336
0.00861922
0.121719
0.0653704
0.0652318
0.0622709
0.0351406
0.0405192
0.0364413
0.0492501
0.050429
0.0144565
0.0512793
0.0506708
0.0687007
0.0655796
0.0653447
0.00810723
0.00715466
0.0903927
0.0893992
0.0883376
0.0526138
0.048182
0.0526864
0.0465916
0.0484358
0.00350455
0.0323653
0.0965396
0.0965605
0.0961577
0.0957879
0.0378983
0.111861
0.113002
0.115008
0.00734905
0.148592
0.160526