/*--------------------------------*- C++ -*----------------------------------*\
  =========                 |
  \\      /  F ield         | OpenFOAM: The Open Source CFD Toolbox
   \\    /   O peration     | Website:  https://openfoam.org
    \\  /    A nd           | Version:  6
     \\/     M anipulation  |
\*---------------------------------------------------------------------------*/
FoamFile
{
    version     2.0;
    format      ascii;
    class       volScalarField;
    location    "800";
    object      p;
}
// * * * * * * * * * * * * * * * * * * * * * * * * * * * * * * * * * * * * * //

dimensions      [0 2 -2 0 0 0 0];

internalField   nonuniform List<scalar> 
29884
(
2.80202
0.0966342
0.591064
-2.59281
-0.0682844
2.55553
0.112284
-4.41462
-0.849877
1.13451
2.87418
0.734155
-1.18299
-2.37745
0.0306457
-1.93459
-0.322093
-2.20408
-4.45319
-2.97309
-3.47544
0.61291
0.34871
3.45361
-1.50569
1.20364
-0.75077
-1.36648
0.379453
0.405589
3.20312
2.77945
-0.783295
5.38461
1.91607
1.78176
0.852561
3.09255
1.87062
1.02939
0.766319
-1.60941
3.15082
5.15103
-3.58889
0.507185
-2.32285
2.17121
0.692247
2.53201
3.18772
-0.210248
1.21662
-0.849064
-2.92159
4.34304
-2.73138
-1.69916
-3.74058
-0.66335
-0.315448
-0.80063
-0.250377
1.08032
2.13771
-1.89954
1.3672
1.60126
0.741033
1.54033
-0.342851
-1.07488
7.96012
0.781358
0.524353
1.47414
-2.7928
-1.33853
-2.61613
0.882816
2.18388
-3.35521
-0.359905
2.15599
-0.221191
15.5082
0.735193
-0.620842
0.162956
19.2804
0.523766
-2.3971
15.3171
20.6176
2.80494
27.0577
1.25875
1.37365
0.101004
20.5376
1.63966
1.80029
0.157966
0.550588
0.357123
-1.90541
18.6244
19.1169
3.20762
1.61469
1.28302
26.9924
-0.0701562
-0.201412
-0.192387
2.00364
2.50112
-0.0190983
3.94226
3.42777
0.891887
2.54557
2.11988
2.81205
-0.367906
3.51736
1.18528
1.46579
-0.727172
3.08923
3.32005
2.97298
-4.36708
-2.34937
-0.209681
-0.651965
2.29536
0.349241
0.335704
0.613143
0.344224
3.17787
2.01197
-1.99394
-2.15137
-1.93146
-1.59133
2.56019
2.05121
2.23506
2.76663
16.8462
18.2262
0.718878
0.623066
1.00875
0.564319
1.16703
0.854454
0.621887
0.95121
3.53275
3.72096
2.8305
25.6829
25.5904
-2.55184
-1.04409
1.10606
-6.04259
-2.82753
1.28113
1.3004
-0.357257
-0.215276
2.78874
3.09349
-2.94472
2.0089
1.77919
1.91032
5.47356
5.53594
4.86428
-0.118027
-0.0931357
1.30329
1.16592
1.31215
3.31661
0.55148
4.3975
4.98877
-0.284261
-0.366537
2.65989
2.71132
0.747899
-0.0237976
0.163558
0.390214
2.6521
2.53316
1.72666
2.59556
4.02261
0.117941
-0.284465
-0.396171
-0.778631
0.573436
-0.596614
-1.8014
-3.66575
-1.71096
20.2105
2.9435
22.0065
0.128302
21.8899
22.1725
-11.5693
2.42427
0.382036
16.9508
22.2699
21.2765
21.7447
14.4104
-5.79775
4.6839
21.752
20.0487
-6.69909
-7.26724
20.3951
20.556
2.86138
-4.17282
-2.51991
-3.47751
27.059
20.6651
-5.65379
-4.35291
3.19213
20.2652
22.0437
-9.72855
-10.9323
-5.75314
1.00973
2.92895
2.79913
22.7394
22.4366
21.4231
21.7933
-11.8814
-10.7935
-0.294406
3.33473
-5.68383
25.1859
2.59828
22.1965
-10.2683
2.49868
2.09248
22.3413
1.60508
1.7428
21.2573
21.7346
21.9402
17.9297
18.6527
21.4643
21.1877
-4.1624
-0.924768
20.1477
1.61532
1.89228
3.90092
3.16121
2.81649
-8.56334
25.8003
1.92526
22.3722
20.1691
20.2355
-4.91353
-8.86329
-9.0714
3.43525
20.1113
20.2015
-5.33087
-5.05551
20.9373
20.7142
20.9495
21.4476
17.7819
16.7705
6.74598
2.96433
3.19657
3.1907
3.48672
21.0355
-4.38135
-4.82654
-8.97651
-6.23354
20.7952
-11.6824
-10.6473
-11.609
20.4807
21.0325
21.2419
-9.79638
1.80223
20.313
20.8694
20.9325
21.2984
2.50294
2.07608
2.05271
2.11787
20.7511
20.7792
2.31297
-4.73171
22.2773
22.2197
-8.31649
-3.37423
22.088
8.32165
0.354427
22.4825
22.0685
22.227
22.2566
19.826
19.5109
20.423
1.6474
1.75107
1.35267
20.8804
21.4432
21.5701
21.5635
21.49
20.3265
19.3664
6.33869
0.652389
2.7266
2.5837
2.74595
2.65967
25.136
23.0448
-7.31365
-6.0095
0.51721
0.652344
0.469449
3.33047
2.72435
-7.98327
-9.07132
-9.62422
-9.62811
12.0048
4.13944
4.09382
3.65062
-5.27207
-6.01447
-5.83476
-5.20662
16.7239
17.8681
18.8968
17.3877
-6.50303
-7.09753
-6.70354
20.6566
21.0081
-4.10225
-3.61709
18.0349
19.17
16.5795
17.8744
17.0037
16.6992
21.998
3.12286
3.34242
2.09672
2.38067
20.7138
20.3141
22.3251
22.4969
22.6936
19.915
0.214009
20.6179
20.0753
20.9703
-2.54731
20.9343
20.7883
21.6471
19.9563
19.4111
19.1537
18.7219
20.979
20.5827
20.7193
20.1715
-4.16455
18.576
19.5022
19.4699
19.7509
-5.44242
-6.11816
21.7489
21.2542
20.5181
20.7817
3.97016
3.58553
4.18198
-7.23215
-6.06949
-7.84373
-6.96876
-0.14521
-1.52056
14.7875
14.5937
1.10925
1.18124
1.15235
1.12403
-1.29712
25.3002
6.8491
6.09888
0.746879
-6.33349
-6.0326
-6.37683
-5.64014
16.6406
15.7108
16.0262
14.935
1.63048
1.49189
1.63703
0.973301
1.01795
1.13385
0.701564
0.923575
0.846348
3.74691
3.52708
3.61047
4.02197
-5.10982
-4.52461
-5.25325
-5.63328
3.29479
2.98584
3.15438
22.2725
22.478
22.3221
21.7932
4.30157
5.10029
4.53527
26.8771
25.338
1.43797
24.9911
11.1112
0.886704
0.85922
27.1769
27.0708
0.90153
0.928316
0.933496
1.40004
-9.4936
0.963382
-0.508463
27.086
27.0766
2.4273
21.9401
-0.058215
1.04294
-4.24533
-6.11747
-1.82992
-2.04789
25.7458
-3.73496
-4.24062
-0.251268
2.064
-6.54484
0.00128618
0.149311
0.151868
0.290542
-1.88722
3.16259
3.20476
-2.84746
-2.73194
-2.91082
-0.129586
-0.427014
1.2744
1.31806
1.12101
1.06695
4.78153
25.6146
2.25913
2.21132
0.00405968
1.19513
-0.429425
0.994142
1.07161
1.1063
25.26
1.47049
1.40898
-9.37854
-10.6451
-9.33464
-2.46342
-6.56307
-5.04539
-0.418917
-0.359487
-0.389932
14.9481
14.1355
-3.14953
-2.756
-2.36877
-1.77288
7.47968
-4.76611
-0.990669
-0.820687
-2.50934
-2.821
25.1565
0.234198
-1.22851
14.7948
-0.13686
0.190077
25.7622
19.012
19.6369
2.26811
1.14527
1.21704
-8.38664
2.61052
6.54103
7.32893
22.5017
22.3233
4.086
4.60785
4.40721
1.07711
1.02325
25.786
1.33509
3.64618
3.87339
1.94751
1.74937
1.60263
2.42852
5.83474
5.19885
6.40373
5.73876
2.8856
0.539349
1.64613
-0.7927
1.77471
0.303785
0.760839
0.900153
-6.37709
-7.34735
-1.52786
-0.129988
-0.506651
-1.01026
9.60096
10.86
19.7592
20.1559
20.5449
21.7015
0.87166
3.14316
2.92947
0.724739
1.3692
17.6996
17.0149
-3.7719
-4.04762
-3.28884
2.08453
0.991684
3.24921
3.59283
6.98104
3.81655
4.4705
-10.4455
-11.4012
1.17484
1.34493
1.1479
1.37883
-2.68912
13.0902
12.3445
11.5161
1.68305
1.78557
1.90427
1.86463
2.0093
1.02126
2.96458
3.13492
-3.58022
-3.41397
-3.01931
-2.1337
-2.38477
-2.68666
-1.38489
0.52365
-1.99867
13.2847
12.3446
11.1863
25.813
25.7099
5.09723
5.56523
20.0701
20.3064
-0.620327
-1.11743
-0.359693
22.1214
22.4371
8.17084
7.49744
23.0159
19.224
-7.10002
7.76132
3.806
5.80504
23.4393
4.35216
-22.9015
-7.525
-16.9604
-1.40716
22.9656
-4.94759
-11.8094
22.5883
-21.5037
-4.34938
-4.5427
4.9755
5.10211
4.05613
-0.378281
-0.892424
7.54348
-3.44193
-3.76711
-8.07629
5.67089
5.07161
-4.29835
-3.44603
-3.14551
-0.846792
0.386236
0.105629
21.4172
4.11101
4.72615
-2.03593
24.5046
19.9832
19.6413
23.5927
-17.7951
4.41908
-14.0721
-10.7429
23.8673
0.982561
-0.249884
2.94269
23.8448
-11.5568
-11.3932
4.69917
-2.49927
-1.71325
-3.12434
-1.5289
-3.29267
3.27044
15.206
-11.0264
3.83733
21.562
21.5999
1.72941
1.60703
-9.45671
-1.90167
23.1116
-6.88492
-8.35342
-1.08244
-0.0412906
3.9589
-31.378
-3.2382
-0.788778
2.90359
19.8779
19.9523
6.4028
-5.69409
-5.9193
-6.65986
-30.9782
0.61353
-9.13854
-8.94743
22.732
1.36621
0.978439
23.022
22.8486
-11.3231
-11.4589
0.647753
-11.868
21.6083
-0.183514
-0.777402
2.53578
-6.08648
15.0815
0.13196
-0.112031
-9.47605
-3.07317
-2.06527
-7.39279
25.3632
18.5517
-10.0387
5.86584
5.46322
19.3738
19.6457
-3.49836
-3.20703
-12.6268
-22.803
-4.85469
-8.75575
-9.39011
22.4364
-2.87389
-11.3169
26.5363
-16.3983
2.30178
-4.55904
-4.68322
3.56973
3.48585
0.0498516
17.879
4.41528
-22.1487
-14.0039
-14.2123
3.11761
-10.6052
-2.74176
-0.133015
-14.44
-14.8532
6.86424
17.4023
24.7403
-3.15194
2.16231
2.34595
18.9515
18.8423
-1.36668
8.19451
-0.952458
-0.784426
-5.66102
3.80139
1.04039
0.60436
8.08257
9.44921
21.365
22.7404
22.9477
22.9242
-2.48584
-1.63904
-9.65936
19.7841
20.0315
14.9738
1.21129
18.0728
23.2613
16.4926
15.7862
-6.70315
2.25163
-0.898333
17.9001
17.745
-4.2604
1.47429
-10.9688
4.61605
-11.572
5.36882
5.3182
22.543
1.62777
-15.4689
1.20226
-10.7691
-0.355694
0.488746
18.7339
17.8682
17.7835
4.72011
4.40984
2.49745
-8.41795
-8.51021
18.9918
2.22118
1.85933
1.74649
0.336845
-0.0210815
3.22571
-8.36972
-9.20137
-21.5578
-2.82304
-2.15465
-2.19888
8.38691
8.16917
6.00577
6.28031
-2.8811
-3.33804
-12.9708
3.8558
-2.03212
-2.31852
-12.4336
7.10132
-20.3052
17.8547
-10.8842
-10.5804
-18.2668
4.17686
-12.4097
1.95847
2.2848
-10.3972
-8.98781
0.682223
18.3352
-15.7843
4.74917
5.14052
-11.1752
16.6605
-9.91001
24.7148
2.92156
3.39809
4.12081
2.60107
3.16859
0.771831
0.97767
2.0202
3.67004
-16.1357
-14.9962
6.4738
2.59995
1.80573
0.437097
-1.25221
-1.60777
2.08871
-6.84873
-7.89937
5.42521
5.07482
-3.84901
-11.9989
-12.3037
2.87806
3.09136
24.4679
-5.95825
-5.49621
-1.47127
22.1747
-1.98231
-1.68061
-4.73576
-4.36829
1.51707
1.96486
2.77153
19.9947
20.7216
-10.7442
-4.28334
2.15434
-10.5543
-10.3463
-10.7508
21.7741
21.476
-12.9158
2.58724
-17.1365
-17.4672
6.23169
5.85229
-11.9535
-11.7089
-11.9849
18.3835
18.7106
-4.16919
-11.3816
-3.04925
5.1829
-7.09251
-7.28849
18.9707
-10.1207
-7.04194
-8.64505
5.1523
23.4286
0.656564
0.012174
2.87942
2.256
-17.0396
-10.4818
-9.94345
-8.29917
-7.53348
2.72317
2.69348
2.5986
-13.587
-12.6998
20.5004
-3.43494
-3.30369
2.11847
-7.57452
-7.29599
-3.26094
-2.78699
2.47643
18.6054
18.4387
-14.1501
-12.9993
4.03773
4.39384
4.22799
4.97608
5.53371
18.5364
6.66657
26.2321
-8.20345
-8.54003
-8.09731
-8.01459
-6.97407
-8.79954
-11.2016
-11.3269
-0.543779
-0.502398
-0.740279
0.0764234
-1.38808
-5.17239
-5.54733
23.1012
20.9631
-10.9403
0.896658
0.81858
0.447351
15.2967
0.204562
2.4068
2.71283
1.05783
1.17977
1.4029
2.40166
3.04993
19.6608
19.2076
19.2548
19.5072
-2.39444
-2.98578
20.8931
3.43988
3.39698
3.64861
0.145808
2.71719
18.3329
-4.07657
-3.46214
19.7508
20.2882
20.1018
1.04575
-1.72265
-1.55619
-0.111811
1.9353
2.3638
-1.18443
3.62646
18.9945
19.0537
18.6804
-6.64451
-7.16735
-6.47614
1.19183
19.0665
4.75673
4.16307
-0.325681
22.632
8.01761
7.84243
8.07534
-8.87378
19.3367
-12.4428
19.4877
19.6993
24.2481
25.7012
2.80228
-3.80154
2.87687
-3.97568
-3.67934
0.265324
17.4323
0.638627
4.7327
-18.2425
0.214981
0.547039
0.763747
19.6547
2.73268
2.7458
2.81071
4.03257
4.74387
23.9062
19.2372
19.5226
-0.33279
-0.0923364
0.311246
24.7949
22.5603
3.52641
20.346
20.7555
20.6459
19.8796
19.3706
19.6411
2.30421
20.5639
20.8418
-11.6959
24.2396
4.01416
4.29721
0.350975
0.379319
4.85645
0.341557
0.265275
-0.219789
2.62268
2.51591
-8.9371
1.56875
1.84284
1.90909
0.504678
0.95637
8.51643
2.56175
6.39774
-2.32531
21.6376
22.8492
-0.776556
24.4545
-9.71616
4.42113
18.2507
-4.21982
19.419
19.7906
16.0524
15.9195
1.79908
1.09745
-1.86816
-1.7266
-1.9502
-0.159424
0.222661
-0.0295815
7.08475
6.83858
21.4327
21.9984
24.693
-0.823495
-5.66741
2.95691
3.16959
3.12976
3.58146
3.73556
18.1333
18.0229
1.50882
1.45875
-0.52038
0.316414
0.127098
-0.277911
20.2225
0.186352
1.78556
2.13354
2.58268
2.05397
-14.228
-14.7631
-14.2406
24.7381
19.3335
18.5343
19.7218
20.4075
6.35931
6.65247
21.0582
2.22578
2.44372
6.3563
-10.0311
-9.98254
-8.87661
19.2698
19.2742
19.0734
-9.10565
-9.32544
0.503676
-12.4705
22.052
22.0016
14.6003
14.434
2.80013
2.99651
2.64401
2.4838
5.12788
4.89214
15.8109
-10.6326
-11.0745
-11.8218
3.40854
3.04159
25.7167
20.7955
20.6977
-3.5864
-3.80392
25.058
25.3339
25.7923
23.0149
23.047
-2.46993
-2.82549
-15.9724
-14.2885
-17.8786
-11.4693
22.7468
-7.30372
-7.6232
-7.7381
-10.5541
-10.1952
-10.1395
-9.19251
25.1811
25.2925
25.974
25.8711
24.9072
25.2682
20.3056
19.8919
23.4783
-6.20936
23.8363
2.20107
2.00943
2.19386
3.36384
3.35973
2.89892
1.48157
1.66087
2.00491
2.5399
5.69165
-9.68566
-9.74151
-9.05882
18.6227
18.1634
18.6293
1.31054
1.14481
0.790067
2.38982
2.53458
2.78661
8.40908
3.52917
3.72264
3.56086
-0.884497
-0.521088
-12.2902
3.28101
2.7876
2.87664
25.2345
25.0456
2.75069
2.77635
3.04121
3.35352
-9.4613
1.88575
1.74934
1.1854
1.92968
2.33371
2.42119
2.23104
-1.99939
-1.89365
-2.17938
-2.73256
-8.32281
-11.4882
-11.447
-11.3203
-11.3686
18.5728
17.8072
0.812505
1.57917
4.31438
3.48612
-15.0645
8.19194
-10.1659
-11.0338
-6.23594
25.4996
-10.9257
-11.7835
4.2031
4.9694
3.44268
1.03358
1.20679
26.0631
-6.60189
-6.6822
-5.84188
-8.14278
-8.43558
-8.11565
-10.0819
-10.1872
-10.1278
-3.97211
-4.33292
19.9129
19.4125
0.469392
0.289272
0.978559
25.4411
20.6606
26.7524
14.7805
-12.0584
-12.3973
-11.1432
-12.0504
-14.0762
19.8684
19.3945
19.2419
-8.62313
-7.70353
-8.45516
-7.79998
-11.0476
-10.8103
-10.9931
-11.0868
22.6908
23.016
22.5954
22.5769
-8.79923
-7.86528
-8.54008
-8.27428
16.3567
-5.05983
2.72253
2.59057
2.34104
2.68729
-1.51858
-1.12738
-1.42938
-10.4516
-10.4839
-9.94902
-10.6253
0.79234
1.15166
1.57198
2.48812
2.57925
2.33751
2.33335
1.98272
19.7214
20.2348
19.5482
19.0833
2.70233
2.54726
2.51986
2.588
-9.04317
-9.32943
-9.55586
-4.02553
-4.75117
3.36044
3.83661
3.23037
-13.447
-14.0751
-1.09105
-0.935665
1.44446
1.95116
0.922145
1.49668
0.835853
0.25806
0.78146
-6.83392
-7.30045
-6.53833
-6.87071
-6.23098
-6.07736
17.1373
17.5442
-0.698998
19.3555
19.4373
21.9024
1.09327
1.40828
1.75469
1.47449
20.6468
-2.77913
-2.00788
-1.70282
-1.02134
2.75157
2.40252
18.3419
18.663
17.9462
18.2026
-3.05266
-2.69982
-3.43444
-6.41228
-7.04097
-7.05924
19.5732
19.2773
20.3933
20.1835
-8.43724
5.10042
17.048
-6.62814
-6.93403
-5.72358
-6.68259
-21.6486
5.96404
-21.3285
-21.0222
4.12182
4.41705
3.69538
3.90881
-2.07952
19.4159
19.771
3.46858
3.4233
3.75788
-0.0378637
-0.341849
-11.5962
-11.6627
-11.518
-8.75578
-8.37875
-8.66658
-8.31537
21.6791
6.08932
5.90966
-4.66789
-5.00982
18.8513
18.9901
18.6835
22.5841
-4.60526
4.69369
-0.462326
-0.728236
-0.534831
1.10169
-8.42646
-8.83824
-8.00572
1.76193
1.90728
1.54084
19.9896
20.142
2.90631
2.51757
-7.59201
-7.33092
-8.14936
5.2373
4.94371
5.64597
-6.16602
-6.39137
-6.06653
-6.55825
-6.82554
18.2199
17.7202
18.006
-3.4364
17.1442
16.7298
-1.43773
-1.58253
-0.380608
2.14073
1.49147
-12.3409
-12.2741
4.33086
4.02814
21.1539
20.5709
4.4527
4.19212
3.36405
2.92689
1.79979
1.83465
1.25952
1.33506
1.78804
1.77741
18.1336
17.9227
0.711058
0.261736
-0.134241
0.254958
-0.718098
19.9714
19.7145
19.5262
22.7504
22.862
22.5096
22.8684
19.9424
19.5785
19.5589
19.3651
0.198258
-0.295386
21.1723
21.3935
3.24098
3.43139
3.79699
3.83428
3.7033
-12.106
-11.9479
-12.0197
-11.8829
22.5989
3.02798
2.85162
21.5965
21.3926
21.0431
21.5821
-0.105976
-0.160848
-0.545279
-5.06539
-5.30384
-4.90388
1.89628
2.38345
1.40462
20.2527
20.3966
19.6611
19.7602
-3.51256
-3.14607
-2.79322
15.6471
-13.7587
-13.3872
-12.9013
0.523323
-6.7439
-7.62488
-7.02042
-7.16491
-0.314078
-0.574185
0.291253
-0.161084
3.04596
-10.4903
-10.4936
-9.80006
-10.3159
2.64727
2.72382
2.47299
2.3331
2.13338
2.10653
2.40461
2.13426
1.81582
23.3651
19.4801
19.5706
-12.3285
-12.3056
27.1349
-5.42597
0.635482
0.152914
-0.482268
-0.257024
-1.18909
-1.74927
-1.103
-11.7373
-11.1693
-23.8378
-23.0538
17.631
18.0723
18.1588
18.2802
4.8434
3.09345
2.81585
3.18243
-23.3117
18.4533
18.558
17.9176
18.0861
-7.83652
-7.59711
-7.16691
-6.46105
1.24316
1.29155
1.18511
4.84685
-8.59915
-8.319
-8.77703
-8.84134
-13.0796
-12.5504
-12.5443
4.24948
4.18308
5.2294
20.6473
20.2192
19.9731
19.9604
9.70159
9.55971
-2.52298
-1.57363
-0.94312
-0.887425
21.2059
20.4851
20.2038
-7.30289
-14.2174
-15.6052
21.2785
21.065
5.03282
4.96584
5.13931
2.70724
2.67116
2.87376
-10.9076
-11.048
-10.8078
17.5825
17.1438
17.5637
18.1933
22.7349
19.9615
20.3753
19.9287
20.0833
-4.38953
-9.7339
-5.05713
-5.51935
-0.993137
-1.0298
0.110483
0.0755809
3.26307
2.7427
2.62496
2.57254
3.05352
-0.560365
0.62153
-0.124424
21.893
3.73676
3.60343
3.69619
-1.02221
-0.357234
-8.8019
-8.90315
-8.83451
-10.9329
-10.2615
-10.8989
5.8962
23.2721
4.60067
21.9784
22.0584
2.51954
2.02397
2.60936
-4.8574
-4.76882
-5.08976
0.798831
-11.107
-11.4392
-11.1845
20.7451
21.1334
1.84217
1.50222
1.295
1.58313
4.67068
4.71654
21.996
22.0401
1.82182
1.51672
2.10068
1.93249
2.47845
2.78566
20.4635
4.75977
4.94038
4.70038
-0.951731
-0.484458
-0.909924
-19.1418
-7.38074
-8.04023
-8.21897
-7.60843
20.4638
19.8201
19.492
19.951
-4.70037
-5.61109
-5.01765
-12.7816
-13.879
-17.2922
-14.301
-16.5175
0.462937
0.299923
-1.04928
-0.791258
-5.59751
-6.1809
-5.62359
-4.89825
4.09729
3.88083
3.0147
3.36986
21.8854
16.6911
16.3178
16.8
-5.99788
-5.54401
-6.03786
-6.23092
-12.7889
-11.3977
-10.6052
-10.3994
-9.75187
-4.96434
-4.48458
-4.68793
-3.66633
17.1392
17.4011
0.422063
0.357607
-9.13335
-9.63316
-9.76768
-9.73935
1.28677
-5.53691
-5.18026
-5.30955
-5.16835
2.35341
2.55999
2.48764
23.0023
18.1301
-10.0229
-9.5043
-9.59992
-9.03706
1.67047
1.91764
-10.2552
-10.0647
3.81595
19.3271
2.28747
2.01486
0.931764
-4.4632
5.48198
5.32674
5.27616
-5.85594
-5.55559
20.958
-11.3857
-12.6492
-12.1131
-14.9312
0.303044
0.689186
0.392801
21.7721
21.7277
25.804
-4.27658
21.2149
2.59036
2.70238
2.1762
2.48856
-0.140919
0.232587
1.21321
0.986718
2.63191
2.64026
2.73905
2.71992
-9.0484
-8.42709
-8.01453
-8.79539
2.17232
2.19163
3.48503
2.52476
-6.19622
-5.67939
-6.67622
-11.8332
23.4305
-6.96223
-11.3608
-10.8686
0.991381
0.954635
20.7134
-14.0259
2.73083
3.16256
2.86245
21.7127
0.0574
-0.317415
0.178897
0.834476
3.52646
1.12754
0.793833
1.90858
2.13569
21.932
22.0605
21.3815
21.6682
2.27431
2.37886
2.52905
2.01094
-0.0929897
-0.422991
-0.727384
-0.317298
3.9582
4.35771
4.5823
4.21406
20.7903
20.6869
19.7133
20.0656
19.8292
20.0126
-8.88227
-7.9356
-9.00892
-9.49127
0.228447
0.0782983
-0.229766
6.58832
-11.6165
-11.5931
-11.4516
-12.431
-12.1233
-11.1259
-12.8592
-13.2047
-13.849
-14.1832
-14.2718
2.26375
1.75374
25.8166
20.2187
19.8374
19.555
19.2383
-15.4413
-14.5771
-14.3016
0.209897
-4.21214
-4.52457
-4.15335
-11.0891
-11.1671
2.18429
-10.5501
-10.6513
-2.86097
-3.37145
-3.63799
-10.0975
-8.92588
-8.91934
-9.75869
-11.8268
-11.9853
-11.8166
7.76546
6.76463
-7.89208
-7.09822
-7.51291
25.8286
-9.26463
-8.7106
1.30745
1.42782
0.321389
1.40691
1.23646
1.49465
-12.2975
-11.1126
21.2904
21.4988
0.753247
1.26809
19.7271
19.9656
20.0894
20.4215
-6.11247
-10.548
-10.5445
5.06431
5.19588
4.51911
5.08559
0.977603
0.970593
1.37195
1.09459
0.755749
0.841439
1.26379
1.03896
-0.33475
-0.246015
-0.386759
-10.9576
-10.7338
-9.97223
-10.5354
-9.84544
-10.094
13.0854
-7.64918
-7.57593
-7.57292
6.70178
21.0072
21.2328
21.121
-0.70129
-0.838636
0.409261
0.56243
0.531058
0.967869
-9.59791
-9.02895
1.97069
2.18922
1.63393
1.9784
1.62822
2.06176
2.12332
2.41939
20.2331
20.0763
20.852
20.8376
-12.0895
-12.1664
-12.0106
21.3916
21.0965
20.5922
20.975
5.01195
5.10437
4.7571
18.9666
2.35104
1.90886
1.94556
1.87995
-15.536
-14.8371
-18.4076
24.8587
-3.74809
25.062
25.2445
25.3051
23.3093
-13.4784
25.844
26.028
26.0917
25.5777
25.86
23.6235
25.6323
25.6614
24.8608
24.8999
-11.1436
24.6951
24.632
0.504276
24.2004
-6.48792
24.3374
23.4822
23.4904
-6.20821
26.2336
1.12875
24.6709
26.1839
26.118
21.6954
-1.30988
-0.0325469
23.8391
23.7099
-14.5273
25.0479
1.01222
2.12716
-1.56025
5.94089
6.9395
-6.71236
25.5262
25.4718
25.776
25.7207
25.6729
-14.2455
-14.7474
25.2983
-14.4261
26.4802
26.3785
22.8934
26.6206
-4.19844
-14.8164
0.463173
0.587356
25.8769
-17.1365
-17.561
24.4089
-23.1553
23.5552
23.6802
23.631
2.2919
2.12385
25.2857
-1.23476
1.3743
1.58583
-17.4117
25.285
25.41
25.4673
4.12508
24.1106
25.0625
25.5473
24.5546
23.0949
2.73653
26.3249
19.4968
19.5326
0.621321
6.85677
25.0792
17.838
23.231
25.0938
2.24818
22.8623
25.302
23.3077
23.353
25.1633
24.4242
24.364
23.7614
24.1357
24.0573
24.0657
23.9392
23.3384
20.5257
23.9795
22.3231
0.833425
24.4006
11.4873
23.7217
-1.30824
26.9501
23.6442
23.797
23.8562
5.92831
23.8358
23.6777
-24.5881
25.6514
25.6657
26.3703
-0.610373
-0.691485
-19.0919
23.9
-24.7095
-23.855
26.8406
20.3837
20.5807
-1.4162
21.7508
0.169281
0.107851
18.4651
25.2942
23.3205
-1.00143
-1.57214
23.4176
22.4562
3.74072
23.5975
24.971
25.4543
21.7159
25.3436
24.0106
-9.74965
-9.90466
-9.50758
25.3499
25.9375
-11.9884
-11.9899
4.13739
3.98345
-13.3326
-10.7172
-10.2718
0.237245
24.7887
24.4585
-5.81288
1.38834
26.1403
26.0178
26.2871
25.1403
25.0661
25.9592
25.7883
24.0668
25.1691
25.7774
25.608
24.4711
24.3973
23.7652
23.7569
4.86956
25.4717
25.1988
23.4653
27.2974
27.0121
21.9531
25.5458
22.0255
22.3245
23.4468
23.3752
26.066
24.5073
24.6503
24.4955
1.7823
25.1618
0.216906
0.08786
0.0931566
-12.2273
-1.9477
24.2007
-16.2995
26.4253
2.29067
22.1643
25.4249
22.8696
22.7169
22.7819
24.7915
23.9555
1.03521
11.8305
10.7614
25.2451
25.462
-0.773055
1.27444
-3.97846
-3.67597
23.6791
25.0898
0.313774
21.6969
22.242
27.0773
23.3483
-20.2573
8.07595
7.41893
25.7821
-3.90076
22.7692
22.5543
22.5912
25.4581
-7.58222
-8.86993
-8.70344
17.4766
23.4314
-0.686165
-1.04858
3.79684
-0.146395
-18.534
21.9694
22.4751
1.21565
0.748156
0.585919
23.2737
1.78762
25.6315
25.5768
24.9226
23.07
-21.3687
22.9461
22.9774
23.0416
23.1138
24.958
26.8865
26.9532
-2.42306
-5.92091
21.8101
8.85978
3.35213
3.36611
22.019
-0.293131
-0.447626
-3.38976
-3.83908
25.3261
-22.8641
-0.647443
-1.07169
25.6119
25.7332
23.4021
23.1624
0.574427
0.354602
-0.835905
-1.1421
22.8127
-7.48205
-7.18421
0.796025
23.2156
23.1703
8.26561
23.7908
23.3697
25.2504
24.4818
22.9293
25.8296
-2.3223
22.2701
22.0615
-15.9598
4.58702
22.9263
-16.0585
8.04432
8.74411
7.91628
-15.9583
1.42386
5.48299
-4.97088
22.594
25.2698
23.2599
25.7713
25.6421
-2.16508
23.2496
23.2817
23.384
-5.22219
-8.39605
-6.91235
23.3874
21.8698
21.684
0.00237511
0.267974
-12.4822
21.8026
21.7282
22.0952
21.5346
-0.978599
-1.68959
3.53937
3.21404
-1.68346
-1.5846
1.07933
25.1068
25.1651
2.31401
24.3744
-6.80989
-1.15345
-1.00127
-0.71665
-10.8011
-10.2767
-10.4794
0.145976
-4.31375
-4.91898
2.09215
1.28829
1.40188
0.3818
3.39589
-3.42848
-3.13192
24.4084
24.38
0.772769
24.1457
-9.97015
-10.2918
-8.93369
-2.41499
25.4521
18.9134
25.2497
10.9665
24.9243
23.5083
23.355
1.05444
1.04298
1.22194
23.773
23.7587
24.7936
0.718974
24.9793
11.2686
20.7695
20.7425
20.2765
0.243909
-1.12883
-8.38243
-8.64602
-4.78262
-5.34837
26.5049
26.4575
1.44439
24.6454
26.051
24.6823
-0.228701
-0.666368
0.772664
-5.57881
0.678285
1.70491
1.57055
24.4459
23.3547
2.68086
2.57635
2.01784
2.40955
-5.19457
-3.91423
3.48573
3.50667
8.2181
9.02387
25.5251
0.862597
0.513116
-2.16861
0.230247
0.295782
0.29881
-0.845022
-0.463229
0.70886
0.62169
0.390588
-1.02088
23.0702
22.9198
21.916
-7.76958
-7.24715
-7.96154
-1.10885
-1.24901
-6.675
-9.05799
-9.33722
-2.18008
-1.71781
-3.78194
-3.93136
21.8501
19.8751
27.1974
26.7392
3.73217
-5.441
-5.65238
-5.60749
-0.227288
26.9751
26.8902
-2.28683
-1.81428
24.9905
24.3869
25.7977
25.6989
25.0787
21.15
21.3596
21.1192
1.14198
1.01572
24.7838
24.7726
24.7302
24.9882
24.9612
7.61036
8.88978
-9.03384
-8.09136
-11.7063
1.63169
-8.53719
-8.00126
-4.23325
-4.92998
-5.15675
-6.84196
-6.6646
-6.36676
-6.74816
24.6221
24.5233
0.600279
0.688089
-0.895791
-6.22958
22.8438
24.6989
22.8728
24.6999
25.5237
25.6822
25.6191
25.1407
-7.01763
-2.06229
-2.62758
-3.2919
-3.06591
-2.63974
-2.47893
-11.7011
-12.0829
22.3551
7.3477
25.2058
25.0404
7.99441
24.1269
-10.411
-0.00277549
24.076
23.8824
-0.68274
-0.681663
22.7338
-6.19495
-6.10456
25.1082
-9.37203
-8.73401
-4.14696
20.9525
20.9603
-1.83687
22.7442
27.2473
21.0391
21.0564
20.259
20.1696
19.9361
0.941824
1.0388
0.90973
-6.07646
-1.24644
-1.0245
1.76725
1.35607
2.73418
2.52472
2.6432
21.8856
21.549
21.6533
-3.65122
-0.562133
24.4528
0.947304
0.953539
0.99111
1.7823
-10.5293
18.8429
19.4534
19.1244
19.7677
-3.60309
20.5731
20.4538
21.5253
21.1442
21.0849
5.21627
15.8002
15.3059
14.8237
23.538
23.4357
-3.38497
-3.64011
-1.22781
-0.968528
2.97063
-5.62392
2.26928
23.3056
25.3145
25.2583
1.9691
22.7249
0.01247
-16.1343
21.4325
21.3011
21.1817
20.1865
20.3335
4.91325
-5.23673
-5.05932
-5.12551
-0.397645
23.3175
27.2035
26.9396
0.179036
0.76334
3.12493
3.40444
20.5427
-0.53206
-1.08744
24.1567
24.1573
22.5704
22.6618
22.4411
-0.765918
24.0279
24.0123
0.931991
0.183058
20.368
22.4849
22.4355
22.709
1.01245
2.6096
2.24455
22.1308
2.99997
20.9618
26.2312
21.9813
22.0592
22.481
-0.708968
26.0748
-3.64841
25.1989
22.7896
22.8386
25.4324
25.468
25.4779
25.1391
25.988
1.86277
22.9955
23.1271
-9.31947
21.6632
1.62862
0.957598
1.18628
1.08831
1.23465
-1.22107
2.3285
2.23539
-0.328564
-0.72702
-0.985667
22.6276
22.5559
-1.87118
-2.11263
-5.60092
-5.89664
-5.97517
-2.02221
-1.89313
1.61222
1.67183
-4.223
9.79381
10.7563
20.1905
20.1151
2.01055
2.22309
-4.94196
0.984307
0.503236
0.849652
0.825459
22.2186
5.46347
18.0637
17.606
-3.31957
22.4781
-15.8883
25.0682
0.206513
-0.152751
2.38546
2.57056
-4.27943
-4.31356
-4.07862
26.9168
15.5153
16.2307
16.8114
1.80137
1.57031
1.40399
23.1847
21.3192
20.7615
20.6373
20.6481
2.89645
2.67048
2.64365
-7.07532
21.7381
21.7586
21.8351
20.5179
20.4093
25.4456
1.51657
1.79555
1.51388
-7.71492
-7.60647
-9.66868
-8.95703
2.86687
3.03777
20.7447
20.2521
3.14603
3.21821
21.2468
20.8751
20.922
-3.57063
-3.21384
0.994689
0.881299
22.0836
22.1803
0.305151
-9.29324
-9.77527
1.96048
1.7503
2.12606
-7.91247
-8.37537
0.798027
0.748261
20.6549
21.0328
20.5439
-7.48298
-7.52773
0.450106
0.694182
0.352312
-3.05019
-2.81176
-11.1401
-11.4038
25.3911
1.7371
1.60093
-12.3585
4.8371
5.18838
23.7085
21.082
20.6351
21.5224
21.646
23.2089
1.57781
0.38711
0.0716485
0.706585
0.895009
24.537
3.66705
-0.124632
-16.1936
14.041
14.4844
-7.80971
-7.51876
24.7562
-1.4615
5.72123
5.74849
4.11683
-11.4413
19.7355
19.133
-9.24835
20.4779
20.1371
22.1168
20.3023
20.6304
-1.67881
-5.03534
-5.14287
3.44362
19.8999
20.1326
20.1016
19.6991
20.186
20.3357
21.8204
21.9177
-2.85797
22.1729
22.0676
19.3585
20.2556
20.2118
24.9272
24.9823
2.09332
2.03451
1.9349
0.644482
0.0457603
21.3326
21.7892
21.4878
25.4252
-10.7436
2.4687
2.48306
2.9831
3.10296
23.7959
4.07836
3.47776
3.61476
-4.85847
-3.49777
-2.35834
-5.21658
-5.39429
-0.0415578
0.0556982
-4.88543
-4.26447
-10.4497
-9.99761
-10.2841
0.791387
18.9584
19.4647
-0.429644
-0.540637
-0.0631604
20.9839
20.7247
20.5864
-1.28616
-1.18553
-1.43372
-10.0928
-21.6055
5.00941
5.16852
-10.7401
-10.4171
1.36764
1.72206
20.7032
-9.62138
-9.6423
2.94294
2.8397
0.33792
0.386171
6.32048
6.9234
7.92899
22.1047
22.06
-12.6918
20.655
20.7609
1.62721
0.853583
1.27729
1.4208
0.822525
-5.4045
-3.22869
-4.31605
7.54714
8.35239
9.76006
9.24376
22.2223
22.577
-1.40566
-1.51355
1.49087
1.69476
23.1801
25.3806
20.5383
20.4527
23.523
-5.92866
-5.24721
-5.37559
-0.360692
24.6459
17.2728
17.3924
3.12846
2.99126
21.2387
21.2454
-9.72714
-9.81952
1.79478
1.1687
0.907013
22.4569
22.579
4.25475
4.67192
21.791
21.8592
22.8205
22.6682
-19.4951
0.104184
2.71845
2.61698
-3.16404
-5.23491
26.5383
-14.3175
-3.43649
-8.88829
-9.18834
-3.2073
-2.49847
-4.39412
-4.35079
-0.566114
-0.490926
-0.945372
2.71858
2.95291
0.332787
0.846626
0.638568
26.929
26.3164
25.4994
22.2477
22.3331
21.8235
22.273
1.29254
1.79568
1.32691
-4.61784
-4.58349
2.60176
0.847248
0.702711
0.776786
-3.8195
-3.72654
14.4631
22.0075
9.08179
20.8954
20.5555
-13.8937
8.65307
-0.714192
9.75806
-23.2905
13.1863
-12.7251
-15.0199
-12.5815
5.32659
5.67062
8.82034
6.77997
-12.3019
-10.8211
-9.21163
8.38304
9.63184
9.77439
13.6672
15.9862
-4.41432
-7.94234
7.85669
4.91428
8.7273
3.47184
-12.8924
-13.0371
12.2005
13.5174
3.94608
-17.0427
-20.4394
-9.44527
14.0416
-8.279
3.79238
12.0424
12.3678
7.02809
7.08338
-6.40703
-6.87572
-9.14555
-13.5944
-13.1729
1.48357
-0.914446
14.1091
14.3473
3.57131
2.98534
15.196
-10.1167
13.4556
12.6991
1.01179
-2.13745
13.1865
6.67354
12.2218
2.69302
16.2425
22.1667
6.06498
10.2784
7.90176
3.18826
10.4029
4.46491
4.72822
7.77806
7.70944
-15.3708
-15.4033
2.17246
-4.9638
-21.4729
6.13963
-4.36523
-8.941
16.5756
0.412218
12.7622
-0.0490823
-0.942683
-11.7618
-12.9803
-8.09673
-9.29664
0.725134
-12.8986
-12.7932
5.84646
-1.51863
-2.73835
-1.42964
0.330084
1.45794
18.8169
-8.75107
-2.08987
-1.2853
-16.5268
22.7963
-4.19435
-27.0349
-21.6702
-24.2257
3.49249
-12.4691
-13.8428
11.9936
10.8238
-8.22291
10.6712
-10.4473
-9.12939
0.898838
0.842211
0.929861
0.670644
-11.363
0.991333
4.2704
-3.76362
12.2747
0.0468853
-0.966461
-16.0441
17.6468
8.17698
10.758
7.71758
7.54004
-19.9116
-12.5085
11.3356
-16.7221
-5.40185
14.8858
15.2567
12.0224
13.2582
-13.3862
4.89863
2.40817
1.58086
11.7333
11.4132
8.87229
8.29184
9.03948
5.23428
12.3955
6.77305
-3.99006
-1.2389
0.183923
-1.00489
-19.1424
18.3564
-3.12472
4.20061
4.46375
-12.3171
-12.4089
23.3524
-16.753
-18.1418
19.4763
14.2591
-5.36102
2.81928
-3.57173
-4.51986
5.3343
13.4587
0.996777
-12.4038
2.19734
1.23486
2.80653
3.63225
18.5329
18.4695
-14.2171
1.13707
-4.41677
-4.08549
2.57689
-6.94228
-10.6517
12.8013
0.378136
1.16709
15.393
15.2212
8.04192
8.53141
3.01802
3.48857
-0.0452595
-0.572868
-0.930137
17.2761
-4.368
18.893
18.5715
19.2946
-7.82145
-8.31787
-9.35623
6.60544
-6.56488
15.3053
-6.28587
-5.28681
-6.556
5.66307
-24.9126
-7.70292
10.9035
11.8117
11.4084
14.5687
13.6177
13.6819
10.7556
10.7559
-13.3828
7.27791
12.5315
11.8499
-5.87539
-25.6937
11.5805
-23.8664
-19.0995
3.55424
4.28568
5.73426
6.30693
-16.7201
2.4721
3.73558
4.57373
12.7628
11.7139
1.72066
-1.69563
-2.18468
-0.379327
0.219227
-15.0825
-13.9031
2.55407
1.62161
14.1894
12.3885
11.9295
4.84354
5.53968
10.1651
9.12457
6.81206
9.9427
9.455
8.59783
8.91246
9.07889
11.369
3.26691
3.10339
3.00875
-3.62221
15.8597
8.43391
8.96622
13.6238
-4.42416
18.0541
0.584357
0.754248
-12.4903
-2.05383
-1.339
-2.05646
-10.9566
-10.6673
0.264341
3.78513
3.07945
-2.22523
-1.20393
19.047
9.66403
2.93906
3.76799
-3.8084
-14.3016
7.9226
16.6865
16.789
10.1624
9.80851
-0.345295
-0.478914
-1.05121
-0.364938
0.188223
5.26797
13.8978
12.815
4.89647
18.1668
18.5662
18.6751
14.7152
15.011
6.39256
13.6818
4.96113
5.45384
-2.92359
-1.91457
13.1433
12.108
2.8025
3.56794
9.70706
10.5077
-6.25194
1.73776
1.77804
1.87939
5.93628
-12.3857
-8.81302
5.27198
5.90027
-2.1597
-1.73892
-2.88785
6.83735
13.9534
13.6904
22.6468
22.7118
22.8744
10.4827