/*--------------------------------*- C++ -*----------------------------------*\
  =========                 |
  \\      /  F ield         | OpenFOAM: The Open Source CFD Toolbox
   \\    /   O peration     | Website:  https://openfoam.org
    \\  /    A nd           | Version:  6
     \\/     M anipulation  |
\*---------------------------------------------------------------------------*/
FoamFile
{
    version     2.0;
    format      ascii;
    class       surfaceScalarField;
    location    "800";
    object      phi;
}
// * * * * * * * * * * * * * * * * * * * * * * * * * * * * * * * * * * * * * //

dimensions      [0 3 -1 0 0 0 0];

internalField   nonuniform List<scalar> 
44611
(
1.52369
-2.14651
0.622821
1.52369
1.44616
-1.44616
1.93963
-0.493469
-1.31916
-0.707654
2.02681
-1.31916
-0.092311
-2.17462
2.08999
-0.566306
1.29583
-1.29583
0.180659
1.85445
-2.17631
0.730151
2.3768
-0.340679
0.413129
-1.73228
-0.796921
-1.20076
0.796921
1.29307
-0.552874
-1.33754
0.552874
0.742955
-0.594584
-0.824378
0.824378
-1.17128
1.35193
-0.010165
1.28953
-1.27936
-0.137324
-1.86255
1.99988
1.52532
-0.216018
-1.30931
1.22036
-1.22036
-1.10204
1.10204
-1.51147
1.51147
-1.19422
1.19422
1.50472
0.0206066
-1.92057
0.409105
-0.920368
-0.786145
1.70651
-1.62802
-1.26818
1.26818
0.124728
-1.42406
1.29933
-1.49341
1.49342
-1.28029
-0.220806
1.5011
-1.37216
1.37216
1.65477
-0.143305
-0.460553
1.51029
-1.04974
1.72239
-0.502025
1.32803
-0.214279
-1.11375
-0.701399
1.10042
-0.399022
1.18786
-1.4607
0.272843
-0.881074
0.881074
-1.14573
1.0395
0.106236
0.953981
-0.953981
1.19253
-1.32985
-2.28383
0.813065
-0.813065
1.01591
-1.23193
1.82897
-2.04499
-1.6091
-0.622868
-0.820409
-0.788691
-0.899268
0.899268
-1.04036
1.0302
1.92947
0.0924303
-1.46459
0.103975
-0.299193
1.21489
1.16191
1.73228
0.166145
0.533144
-1.21745
2.03786
-1.46459
-0.98245
-0.47825
1.30363
-1.30363
0.904453
-0.419047
-0.485406
1.33017
-1.14552
-0.184653
-0.79962
-0.643864
1.44348
0.000913561
-0.0786945
0.077781
1.67803
-0.388508
-1.69702
-0.165527
-0.356729
0.90873
-0.552
-0.0376855
0.0442948
-0.00660925
-0.136647
-0.611853
0.7485
-1.16335
0.461947
0.0114583
0.0591836
-0.0706418
-0.0319922
0.00725923
0.0247329
0.855853
0.21296
-1.06881
-0.00162718
0.00162722
1.47494
0.524594
0.240462
1.23447
0.798376
0.879656
-0.0225794
-0.00941273
1.23244
-0.504585
-0.727855
0.917567
0.314872
-1.07186
-0.625165
-0.264558
-0.8073
-0.981893
-0.478461
-0.910207
1.38867
0.00409258
-0.0417781
-0.00863166
0.0336156
-0.0249839
-0.72773
0.852459
-0.649476
-0.286975
0.936452
-1.17455
0.953744
0.00032278
-0.000322725
0.0915551
0.817175
0.996008
0.651648
0.862631
0.467539
1.15891
-0.296279
-0.077967
0.638457
-0.560489
-0.363341
-0.47957
0.842911
0.411518
-0.744375
0.332857
1.14026
0.859734
-0.747344
0.75761
-0.0102655
-0.793571
1.06641
-0.889208
0.199128
0.690081
-0.888063
-1.11923
-0.844655
-1.43918
1.10921
0.33714
-1.44635
0.927225
-0.0713712
-0.199494
0.746065
-0.54657
-0.95745
-1.08754
-1.43591
-0.849195
-1.11407
-1.61138
0.762188
-0.867788
1.27689
-0.346314
0.807482
-0.461167
-0.981712
0.174412
-0.418508
-0.537082
0.95559
-1.30936
0.890852
-0.266124
0.831694
-0.56557
-0.834297
-0.0759104
0.755783
-0.617309
0.830269
-0.892981
0.593788
0.0486213
-0.037163
0.0357183
-0.04435
0.596596
-0.810875
0.849757
-0.683611
-1.49449
0.68262
-0.793205
0.110584
0.811866
-0.707892
0.900423
-0.0900907
-0.810332
-1.39945
0.000973981
-0.000973978
0.000973966
1.07155
-1.07155
1.07287
-1.07287
-1.15427
1.3619
-0.207638
0.626679
-1.08124
0.454561
-0.295948
1.36882
-0.899264
0.58123
0.318034
-0.92916
0.0298964
0.828642
-0.623716
-0.204927
0.0290222
0.335826
-1.1294
-1.25669
1.25669
-0.440377
1.35794
-0.108134
-0.462795
0.00568162
0.457113
-0.152033
-0.310761
-0.641291
0.489259
0.372293
1.02394
1.40237
0.616228
-0.0210953
0.974839
-0.0781489
0.930609
-1.25039
0.358427
-0.837997
-0.282864
-0.934348
0.333277
0.60107
-1.12038
0.186033
0.0900976
-0.799111
-0.963844
-0.315516
-1.45731
-0.727162
-0.232824
1.72624
1.06651
-1.20193
1.30816
-0.0642586
-0.680115
-1.05296
1.69692
-0.643961
0.0855423
-1.41243
1.35592
1.97874
-0.863001
0.863001
-1.64815
0.785149
-0.00574191
-0.00289778
0.00863969
-0.025134
0.030091
-0.00495703
-0.00733275
0.00428436
0.00304839
0.0478644
-0.0569935
0.00912911
-0.00387058
-0.00412129
0.00799186
0.00404727
-0.00791786
-0.0567476
0.0123394
0.0444083
-0.593689
0.295093
0.298596
-0.0635261
0.0496181
0.013908
0.0146492
-0.0633678
0.0487187
-0.004101
0.00814826
-0.00536639
-0.00114065
0.00650702
0.0178327
-0.000670042
-0.0171626
-0.00177753
-0.00970895
0.0114864
0.00520774
0.00453665
-0.00974439
-0.00196905
-0.00585666
0.00782571
0.00554636
-0.00524175
-0.000304645
0.00916105
-0.00294801
-0.00621305
0.0119806
0.0141098
-0.0260904
0.0379504
-0.0259698
0.00146198
-0.00702315
0.00556115
0.00643468
-0.0049727
0.634243
-0.435115
0.0764109
-0.0416875
-0.0347232
-0.0172688
-0.0208396
0.0381084
0.0271799
-0.0477939
0.020614
-0.00308239
0.00308269
-0.00686081
0.00162751
0.0052333
0.0330587
-0.0131085
-0.0199502
-0.0491336
0.00916463
0.0399689
-0.0858788
0.0158852
0.0699936
0.00373747
-0.00939391
0.00565641
-0.00922169
0.0059504
0.00327129
0.0926579
-0.0314228
-0.0612345
-0.00420382
0.0592287
-0.0550249
0.0449462
-0.0448761
-7.00815e-05
0.00135468
-0.0197953
0.0184407
-0.0583437
0.015141
0.0432026
-0.0387358
0.0538184
-0.0150827
0.00319764
-0.00742381
0.00422616
-0.00576131
-0.00215656
-0.00582499
-0.00700784
0.0128328
-0.00994628
-0.0368578
0.032654
0.0268405
-0.0636982
-0.00358569
0.00904937
-0.00546367
0.0317872
0.00888205
-0.0406692
0.0186916
-0.00473194
-0.0139597
0.00277709
-0.002777
0.00889875
-0.0281069
0.0192082
-0.00793321
0.00525252
0.00268068
0.0600466
-0.0609817
0.000935133
0.0310644
0.0316988
-0.0627633
0.0564306
-0.0253662
-0.00554808
-0.00238514
-0.01991
0.0211705
-0.00126056
-0.00759013
-0.0123198
0.00365844
-0.0106663
-0.0073966
0.00870253
-0.00130595
0.00529
-0.00750351
0.00221348
-0.0239455
0.0385947
0.0203493
0.0105808
0.00725185
0.0178401
-0.0246836
0.0295898
-0.00490623
0.225146
-0.186314
-0.0388322
-0.00721924
0.00266407
0.00455517
-0.630056
0.343081
-0.0216905
0.0141004
0.0859314
0.46326
-0.549191
0.0554906
-0.0715105
0.0160199
-0.00285308
0.00506324
0.013352
-0.0184153
0.0012914
-0.00129143
-0.0569644
0.473437
-0.416473
0.0131024
-0.00202785
-0.0110745
0.0093388
-0.00488779
-0.00445102
0.00553737
0.00362367
0.00774913
-0.0268287
0.0190796
0.0186209
-0.0222531
0.0036322
0.00942334
0.00919755
-0.0256825
0.0530031
-0.0273206
0.00559604
0.00374275
-0.00243635
-0.0047829
-0.0139037
-0.0161243
0.030028
0.00210693
0.00822308
-0.01033
-0.00437928
0.00636619
-0.00198693
-0.00778122
0.00340194
0.00710571
-0.000739532
0.00034695
0.0149471
-0.015294
-0.00919089
-0.0288047
0.0379956
-0.00947898
-0.0353209
0.0447999
-0.429019
0.354717
0.0743024
-0.0337855
-0.00495025
0.0186445
0.0306328
-0.0492773
0.016114
-0.00328121
-0.0207958
0.0197944
0.00100147
-0.0170659
-0.00372989
0.0269967
-0.0175734
-0.0505128
0.0284932
0.0220196
-0.00108714
0.00719714
-0.00611003
-0.00219803
0.0528132
-0.0506152
0.0578484
0.0486068
0.0042064
-0.00140783
0.0238542
-0.0224463
0.0159654
-0.0156184
0.0145575
-0.00549427
0.0219438
-0.0164496
0.00502231
-0.0193207
0.0142984
-0.00915805
-0.00877522
0.0179333
0.00971549
0.00639854
0.000557433
-0.00237668
-0.0270399
0.0191098
0.00793007
-0.0230032
0.0250555
-0.00205222
-0.0500431
0.0441653
0.000371291
-0.0072321
-0.0038413
0.00600381
-0.00216251
-0.0272844
-0.566405
0.0541369
0.0332088
-0.0873455
-0.0131898
0.0067909
0.0063989
0.0104109
-0.00695913
-0.00345178
-0.0474833
-0.027462
0.0749451
0.319672
-0.529502
0.20983
-0.00492143
-0.00502485
-0.0879925
0.221621
-0.133629
-0.920203
0.30835
-0.00546695
0.00622443
-0.000757487
-0.00763541
0.00696537
0.0334798
0.00013578
0.0252128
0.008267
0.0239899
0.00751559
0.0136549
0.0125379
0.00386864
0.0097863
0.00085608
-0.0234355
-0.0163065
0.00648603
-0.015638
0.00915202
-0.0153075
-0.000999083
-0.00882143
-0.024656
0.00027185
0.0243842
-0.0386645
0.0136806
-0.245588
-0.18343
-0.0249546
-0.0385716
0.0234262
0.0303922
0.0313563
-0.388841
0.492857
-0.104016
-0.510375
0.500109
0.00168916
-0.00168916
-0.00589983
0.00252556
0.00337428
-0.0775718
0.0300883
-0.00362011
0.0485662
-0.433786
-0.486417
0.164971
-0.598757
-0.5532
0.0667828
0.00236117
0.029426
0.0259158
-0.0268959
0.000980077
0.0431739
-0.0467246
0.00355053
-0.00815274
-0.0141004
-0.013647
-0.00399683
-0.0101036
0.0573643
-0.141087
0.083723
0.243771
0.221926
-0.465697
0.344433
-0.100662
0.554783
-0.0185278
0.0208588
-0.00233094
-0.0147666
0.0234526
-0.00868599
-0.0332944
0.0443113
-0.00999912
-0.0483625
0.0583616
0.0359772
-0.000258814
0.0259781
-0.036009
0.027323
0.00194142
-0.0231899
0.00578446
0.00353917
-0.00932364
-0.00339078
0.00794753
-0.00455676
-0.0495118
0.000378178
-0.016749
0.0439289
0.0273339
0.0206423
-0.0479762
0.0359866
-0.0297565
-0.00623015
0.0309034
-0.0299898
0.0324644
-0.0283718
0.00905575
-0.00282058
-0.00623518
0.509998
0.124245
0.582138
-0.0721398
0.885615
-0.418077
0.0865048
-0.00780083
0.000861242
0.00693956
-0.00873127
0.00298935
-0.00951813
0.00659656
0.00292157
0.00170841
-0.0112265
0.0116445
-0.00504793
0.00474971
0.0192453
-0.023995
0.00884642
0.00245051
-0.0112969
0.0070946
-0.00794259
0.000847972
0.00567
-0.00725008
0.00158007
0.00363637
-0.00747767
0.0127707
-0.0300395
-0.0086056
-0.00640892
0.0150145
0.00587133
-0.0144769
0.00715315
-0.0135621
-0.0206141
0.0112014
-0.00459866
0.0305767
-0.00815567
0.0118141
-0.00685884
0.0116086
0.0234227
-0.49208
0.548352
-0.056272
-0.0217293
-0.00380163
0.0255309
0.00137995
0.0178653
0.0140637
0.0211083
-0.0773671
0.0562586
-0.035933
0.0570413
0.000327371
-0.00600378
0.0056764
0.00671764
0.000388067
0.00704501
-0.00561572
0.758276
0.00945152
-0.767727
-0.0520562
-0.511963
0.193627
0.318336
0.0360356
0.00713836
-0.00924457
-0.0356316
0.026791
-0.0404973
0.0714749
-0.0309776
0.444025
-0.547975
0.10395
-0.0381873
-0.029658
0.0678454
-0.0721793
0.033992
-0.357723
0.594323
-0.2366
-0.578729
0.557634
-0.0601563
0.163725
-0.103568
0.102334
0.12281
0.0031907
-0.00306308
-0.000127618
0.254741
0.113456
-0.368197
0.260423
0.0183323
-0.0169776
0.00805718
0.0250312
-0.0330884
-0.022167
-0.0111275
-0.0322625
0.0227836
-0.0164562
0.0493957
-0.0329394
-0.886111
-0.187986
1.0741
0.571239
0.373867
-0.945106
0.470203
0.287635
-0.757838
0.180845
0.289359
-0.508183
0.618767
-0.466656
0.631627
-0.305852
0.391784
-0.440213
0.362064
0.753848
0.0125844
0.0204743
-0.0203335
-0.00435004
0.0305743
-0.0216922
0.00544029
0.0313109
0.00180709
0.00860381
-0.00741928
-6.58242e-05
0.0074851
-0.0056122
0.00853799
0.505054
-0.0417935
-0.0899346
0.446844
-0.356909
0.41512
0.00105951
-0.00172286
0.000663478
-3.95663e-05
0.00235434
-0.00231477
0.0593831
-0.767112
0.707729
0.00222547
-0.000200947
-0.00202452
0.16096
-0.103596
-0.039368
1.17963
0.285295
-0.96263
0.677335
-0.00126917
-0.00181313
0.00181772
-0.00308682
-0.753775
0.339007
0.414767
0.57293
-0.859234
0.494379
0.364855
0.0814906
-0.0222618
-0.268301
0.498033
-0.229731
-1.20196
0.558093
-0.00138229
0.00138231
-0.696142
0.668858
-0.0099412
0.0043931
0.778189
-2.03488
0.749365
-0.75802
0.00865485
-0.55528
1.62683
-0.611036
0.699175
-0.0881392
0.385072
0.258745
-0.643818
0.829098
0.00215737
-0.00215736
-0.244207
0.781929
-0.537723
-0.736287
-0.467468
0.800745
-0.623369
0.0352261
-0.071159
-0.861429
-0.340528
-1.28434
0.823172
0.535839
-0.613806
-1.03772
0.472146
0.0444085
0.463354
0.881243
-1.3446
-0.832286
1.29564
-1.38757
-0.77132
0.352272
-0.688814
-0.0825061
-0.868466
0.00923179
-0.809083
1.33926
-0.814664
0.184992
0.392855
0.00127641
0.00243541
-0.0037118
-0.129947
0.36291
0.214234
-0.903048
-0.365016
0.152049
0.212967
-1.06636
0.624085
0.12528
-0.633317
0.00276305
-0.00298588
0.000222832
-0.955097
0.0303864
0.0789932
0.0239683
-0.469178
0.651622
-0.182444
-0.34452
1.48076
-1.82528
-1.00869
-0.105376
0.923152
0.520332
-0.0195107
-0.0909438
0.0714331
0.831821
-0.512149
0.362643
-1.69508
1.39913
0.896618
-0.402008
0.210158
0.191851
-0.992712
1.85571
-0.737721
0.537057
0.200664
-0.260958
-0.476764
-0.207563
1.2484
-1.45597
0.00236868
-0.000679535
-0.305456
0.784158
0.0448416
-1.31818
0.1978
-0.519806
-0.00139759
0.00139758
-0.0113306
-0.609637
1.54121
-0.179305
0.612048
0.0601663
0.0324918
-0.0248765
0.0565753
0.239775
0.114942
-0.162233
0.0106827
0.606674
-0.597222
-0.554618
-0.283379
0.901407
-0.419013
0.00216499
-7.63672e-06
0.646428
0.032947
-0.479016
-0.589141
-0.0342288
-0.900087
0.310946
-0.535231
0.709103
-0.432673
0.547615
-0.716052
-0.264752
0.474909
-1.34601
-1.48932
0.649521
-1.04556
0.0551142
0.00131638
-0.253956
0.832072
-0.578117
0.0411229
-0.0860373
0.0506743
0.0353631
-0.0518636
-0.0341736
-1.19063
1.05341
0.137215
0.227208
-1.27277
0.828278
-0.362347
0.0309427
0.228854
-0.259797
-0.0855484
0.116491
-0.00764358
0.0217073
0.0157791
0.0163365
0.00471065
-0.393795
-0.568835
-0.61871
0.0915983
-1.55618
-0.0237077
-0.0608706
0.771169
-1.53351
0.762344
-0.880714
1.65188
-0.755325
0.212427
0.162882
1.22939
1.55618
0.17006
0.0541636
-0.0525287
-0.00163497
-0.00681811
1.64306
-1.02684
0.91521
-0.282103
0.00411963
-0.0950633
-0.075412
0.0795317
0.873302
0.200795
0.688649
-1.06194
0.643866
-0.373293
-0.937143
0.47734
-0.652055
0.0362036
0.818133
0.53603
-0.575769
-0.898674
0.322905
-1.08754
0.539293
-0.047066
0.118499
0.0324658
0.148957
-0.00336352
0.00319282
0.000170735
-0.00208711
-0.144306
-0.571746
-0.389894
0.0181237
1.58876
1.08673
0.00196678
-0.0047479
0.0027811
-0.00362115
0.00558791
0.00984593
-0.00564338
-0.00420255
0.00217886
0.00766707
-0.00346178
0.00639551
-0.00293373
0.00558154
0.000174309
-0.00575586
-0.00126406
0.00907069
-0.00780662
0.00704685
-0.00630516
-0.000741688
-0.00482692
-0.00196636
0.00679328
-0.00094262
-0.00524252
0.00618513
-0.00428803
0.00201078
0.00227725
0.00163724
0.00686971
-0.00850695
-0.00130514
0.0104303
-0.00912518
-0.00989384
0.00330734
0.00658649
-0.00108189
0.00937063
-0.00828873
-0.0154301
0.0151384
0.000291618
-0.00658307
0.00327283
0.00331024
0.00982391
-0.0110308
0.0012069
-0.0173977
0.0114245
0.00597317
-0.00489506
0.00478504
0.000110004
0.00767997
-0.0089851
-0.0172149
0.00168196
0.015533
-0.0091755
-0.00803949
-0.00691947
0.00283461
0.00408486
0.000396296
-0.00731577
0.00419376
0.00462312
-0.00881689
-0.00741763
0.000378987
0.00703864
-0.0027363
-0.00468133
0.00104129
0.00497829
-0.00601958
0.00837749
-0.00933364
0.000956135
0.00801485
0.000362651
-0.00796541
-0.00288583
0.0108512
-0.00577813
0.00483551
-0.00180673
-0.00449508
0.00630181
0.00286939
0.0039969
-0.00686629
-0.00746801
0.00669801
0.000770004
-0.00258113
-0.00488688
0.00588834
-0.00862463
-0.00943123
0.00164255
0.00778868
-0.00330801
-0.00612322
0.00116158
-0.00650296
0.00534137
0.00449247
-0.000916079
-0.00357639
0.004132
0.000360469
-0.0160595
0.0288303
-0.00242764
0.00463261
-0.00220496
-0.0055107
-0.000513915
0.00602463
-5.05168e-05
-0.00546019
0.00185101
-0.00325361
0.0014026
0.0227504
-0.0338155
0.0110653
0.0264337
-0.00793665
-0.0184971
0.00236626
-0.00860202
0.00623576
0.0111435
-0.00134575
-0.00979776
0.00382155
-0.00266394
-0.00115761
-0.00751551
-0.00258437
0.0100999
-0.0138584
0.00911012
0.00474824
0.0047113
-0.010016
0.00530469
-0.00528121
0.00108032
0.0042009
0.0136376
-0.00254241
-0.0110952
-0.00922976
0.0228673
0.000275889
0.00733546
-0.00761135
0.00240845
0.00722319
-0.00963165
-0.00637562
-0.00162815
0.00800376
0.00574923
-0.0120617
0.0063125
0.0081792
-0.00659594
-0.00158326
0.0029362
-0.00847033
0.00553413
0.0101842
-0.0224865
0.0123023
0.00193348
-0.00687192
0.00493844
-0.00683755
-0.000704473
0.00754203
0.0095152
-0.00525064
-0.00426456
-0.00889948
-0.000751907
0.00965133
-0.00758854
-0.000721635
0.00831015
0.00464323
-0.322521
0.317877
0.190071
-0.185428
0.00983136
0.00058506
-0.0104164
-0.00167801
-0.00809336
0.00977137
0.00114097
-0.00469366
0.00355269
-0.00880329
0.00591862
0.00288467
0.00137782
0.00848286
-0.00986069
-0.0112849
-0.0041452
-0.00447848
-0.00680638
0.0113703
0.0150635
0.00802147
-0.00802154
-0.00467323
-0.0044049
0.00907813
-0.00955016
-0.00567441
0.0152246
0.00637393
-0.00264495
-0.00372899
0.00804392
-0.00725703
-0.000786901
0.00514614
-0.00601299
0.00754717
-0.00153418
-0.00865323
0.000902268
0.00775095
-0.00393735
-0.00471588
-0.00790102
0.00776746
-0.00776747
-0.00168948
-0.00440973
0.00609921
-0.00748574
0.00731062
0.000175115
-0.000936028
-0.00654971
-0.00386185
0.00658802
-0.00272617
-0.00584329
0.00333382
0.00250948
0.00140938
-0.00725267
-0.00462356
-0.0024942
0.00711775
-0.0105578
0.00472408
0.00583372
-0.00895462
0.00944506
-0.000490446
-0.00491282
-0.0040418
7.83153e-06
0.0178413
-0.0178491
-0.0190941
0.0296625
-0.0105684
0.00554226
4.07662e-06
0.00785174
0.000796915
-0.00864866
0.00966404
0.00674326
-0.0164073
0.0291057
-0.0428111
0.0137053
-0.00813858
0.00986321
-0.00172461
-0.00543288
-0.0105309
0.0159637
0.00826987
-0.00541878
-0.00285109
0.00185867
0.0064112
-0.00429292
-0.00421078
0.0085037
-0.00628528
0.00922148
-0.0111448
0.00476913
-0.00452906
0.0100185
-0.0054894
-0.00121698
0.00337496
-0.00215797
0.00441005
-0.00620516
0.0017951
-0.00913908
0.00183421
0.00730488
0.0107681
-0.00356815
-0.00719995
0.00419785
0.00657025
-0.0054855
0.00118133
0.00430415
-0.00491441
0.00486389
-0.00791878
-0.000551546
-0.00551033
0.0029219
0.00451151
-0.00743341
0.00459547
0.00386298
-0.00845844
-0.00461809
0.00924711
-0.00462902
0.0078679
-0.00880393
-0.00858362
0.0076335
0.000950117
-0.00608608
0.00246491
0.00808899
-0.00308
-0.005009
0.00973151
-0.0105033
0.000771798
-0.0040704
0.00356541
0.000505021
0.00541156
0.00323302
-0.00864459
-0.00517732
0.0147484
-0.00957113
-0.014882
0.00570654
-0.00505811
-0.00850099
-0.00703226
0.0155332
0.0133167
-0.0218177
0.0388553
0.0107627
-0.00929209
0.00628957
0.00300251
0.00603961
0.00161622
-0.00765583
0.00758307
0.00477038
-0.0123535
0.0280902
-0.0540108
0.0259206
0.0426077
-0.0145174
-0.00632272
0.0057352
0.000587518
-0.0222562
-0.0273375
0.0495937
0.121567
-0.0142765
-0.10729
-0.00599147
0.00744945
-0.00145797
0.027694
-0.00114151
-0.0265523
0.040664
-0.01297
-0.00218541
0.00695758
-0.00477217
0.00129065
0.0101172
-0.0114079
-0.00490152
0.000453065
0.00444847
-0.000598406
0.00897539
-0.00837699
-0.00820305
0.0112877
-0.00308463
0.0164256
-0.0113079
-0.00511767
-0.000788719
-0.004997
0.00578571
-0.00207012
-0.00383677
0.00590688
0.00554172
0.00400157
-0.00954329
0.00521566
0.00120705
-0.0064227
0.0107717
-0.00632991
-0.00444176
0.00947215
0.00129954
0.00447451
0.00503513
-0.00950965
0.00796616
-0.00377241
-0.000632508
-0.00625271
0.00688522
0.00174215
-0.00729694
0.00555478
0.010619
-0.00844016
0.010647
-0.00772519
-0.00292182
-0.00601529
0.000648872
0.00648401
-0.00347923
-0.00300477
-9.9068e-05
-0.00899028
0.00551105
-0.00352845
-0.00379444
0.00732289
0.0105273
-0.0122053
-0.00816487
0.00387195
0.00314158
-0.00872028
0.00557868
0.00687905
0.00731441
-0.00538094
-0.0108301
0.00304365
0.00778642
0.00637704
-0.00423598
-0.00214106
-0.00286464
-0.000820778
0.00368542
-0.000128253
0.00545005
-0.0053218
0.00655253
-0.00668078
-0.000749427
-0.00766171
0.00841113
-0.0807849
-0.191904
0.272688
-0.0364157
0.0313419
0.00507379
0.00594367
0.00110989
-0.00705357
-0.00334842
-0.00751226
0.00269814
0.00481411
-0.00663278
-0.00685095
0.0134837
-0.00566314
-0.00829889
0.013962
-0.00383586
0.00855996
-0.00472411
-0.00453592
0.0108141
-0.00627822
0.00575219
-0.0039223
-0.00182988
0.00106106
0.00469112
-0.00279136
-0.00210372
0.00177015
0.00607315
-0.00784331
0.00179652
0.00555133
-0.00734785
0.000266124
-0.00790428
0.00763816
0.00359514
0.0125555
-0.0161506
0.000627459
-0.00736569
0.00673824
-0.00625549
0.00688295
0.00424648
-0.0065265
0.00228002
-0.00594691
0.00754635
-0.00159945
-0.000837023
-0.00510989
0.00685354
0.00517338
-0.0120269
0.412939
-0.219311
-0.0054114
0.0110993
-0.00568793
-0.0110661
0.00310068
-0.00968827
0.0076593
-0.00585865
-0.00180066
0.00462841
0.0015261
-0.00615451
0.00704325
-0.00596391
-0.00107935
-0.0010826
-0.0070135
0.0080961
-0.000940841
-0.00741423
0.00835507
0.00279951
-0.00908677
0.00628726
-0.00790767
-0.00787511
0.0157828
0.000447943
0.00656174
-0.00700968
0.000334257
0.00611112
-0.00644538
-0.000759775
0.00834286
-0.00973381
0.00344853
-0.00251062
-0.00769624
-0.00720776
0.00701413
0.000193623
-0.00294156
-0.0042662
0.00692602
-0.00624424
-0.000681774
0.0040651
0.00286092
-0.00670677
0.00881894
-0.00211217
-0.00707654
0.000369766
-0.00513705
-0.00428501
0.00942206
0.00518456
-0.0172368
0.0120522
0.012067
-0.0078647
-0.00420227
0.00741026
0.00465672
-0.0398163
-0.0169313
0.00473474
0.00398098
-0.00871573
-0.0100822
0.00646371
0.00361846
0.00332485
0.00418001
-0.00750486
0.0164103
-0.00837712
-0.00803317
0.0103158
-0.0149101
0.00459431
-0.00396825
-0.0040904
0.00805864
0.000274097
-0.00891863
0.00864453
-0.00472643
-0.00694694
0.0116734
0.00948555
-0.00679854
-0.00268701
0.00394636
0.00556835
-0.00951472
-0.0019863
-0.00752173
0.00950803
-0.0047528
-0.00430406
0.00905686
0.00297612
0.00470506
-0.00768118
0.0081132
-0.00836051
0.000247302
0.00105051
-0.00896519
0.00791468
-0.0264675
0.0203981
0.00606941
0.00775471
-0.0342222
0.0104223
-0.00702709
-0.00339522
-0.00802845
0.000890416
0.00713804
0.00348303
0.00448278
-0.0079658
0.000898293
0.00313694
-0.00403523
0.0575053
0.0248557
-0.0823608
-0.0283735
0.00841352
-0.00813942
0.00497436
0.00133055
-0.0063049
0.000433705
0.005636
-0.00606971
-0.0219246
0.0150995
0.00682503
-0.0136236
-0.00830101
0.00185492
-0.00708647
0.00523155
-0.0408045
0.00013532
0.00827077
-0.00850435
0.000233583
0.00510412
0.0058768
-0.0109809
0.0069684
-0.00201873
-0.00494966
0.0197216
-0.0108228
0.0111129
0.0063161
-0.017429
0.000102264
-0.00819711
0.00809484
0.00195531
-0.0129484
0.0109931
7.77261e-05
-0.0127936
0.0127159
0.00503666
-0.00750297
0.00246632
-0.00957296
0.00297631
0.00659665
-0.00348366
-0.00479694
0.0082806
0.00318963
0.00533777
-0.0085274
0.00708265
-0.00668636
0.00453484
0.00349791
-0.00803274
-0.00920617
0.00440605
0.00480013
-0.00181171
-0.00739446
-0.00703918
0.00791366
-0.000874479
0.00808484
-0.000572901
-0.00751193
-0.00164307
-0.00199462
0.0036377
-0.00332874
0.013424
-0.0100952
0.000412255
0.0110974
-0.0115097
6.94252e-05
-0.00950337
0.00943393
0.00751369
-0.0123403
0.00482665
-0.011264
0.00317068
-0.00843854
-0.00282549
-0.00714369
-0.0043961
0.0115398
0.00447297
-0.0103648
0.00589176
-0.00753508
-0.00108057
0.00861566
-0.00576493
-0.00811975
0.00153277
-0.00639237
0.00485959
-0.00369298
0.00532048
-0.0233029
0.0127681
0.0105348
0.00759715
-0.00100724
-0.00658992
-0.00593669
0.00640114
-0.000464453
0.0148891
-0.00457333
0.00935935
0.00552974
0.011837
0.00959543
-0.00856016
-0.00103528
0.00200687
-0.0039584
0.0307991
0.00981706
-0.00291672
-0.00690034
0.00780577
-0.00894004
0.00113427
0.000957889
0.00684788
0.00776589
-0.00859831
0.000832425
0.00364167
0.00412422
-0.00207546
-0.0170187
-0.0113052
-0.0103065
-0.00671218
0.00835867
-0.00180361
-0.00655507
-0.0068409
0.00653312
0.000307767
0.00327957
0.00303805
-0.00631762
-0.0132444
0.00662094
0.00662349
-0.00596817
-0.00555798
0.0115262
-0.023012
-0.0194282
0.0424402
-0.00961923
0.00615767
0.00346157
-0.00559242
-0.00402682
0.0108086
-0.00807694
-0.00273164
0.00296725
0.00721283
-0.0101801
-0.00846837
0.0072043
0.00185755
-0.0084652
0.00660765
-0.00663519
0.00558209
0.00105311
-0.00182306
0.00337636
-0.0015533
-0.00418592
0.0161041
-0.0119182
-0.0245949
0.020409
0.137007
-0.241023
-0.185513
0.0597659
-0.0171532
-0.0426128
-0.0101879
0.00435596
0.00583193
-0.0113182
0.00113026
-0.00379033
-0.00544985
0.00924018
0.00532822
-0.00911855
-0.0125872
0.0214296
-0.00884239
0.0175038
0.0273629
-0.00593338
-0.00875716
-0.042967
0.0517242
0.0330311
-0.0417882
-0.00190203
0.00894703
-0.00507526
0.0239083
-0.018833
0.0113465
-0.0288925
0.017546
0.00162692
-0.0080254
0.00639847
0.0174728
-0.00411274
-0.0133601
0.0152764
0.00219643
0.00509937
0.00427699
-0.00937637
-0.00453228
-0.00981222
0.0188634
-0.00905116
0.00347135
-0.00554147
-0.00336955
-0.0368358
-0.0351149
0.0719507
0.0449562
-0.0649778
0.0200218
0.0046657
0.00544363
-0.0101093
-0.00220247
0.00686817
-0.000342122
0.00578575
0.00241144
0.00503631
-0.00744776
-0.00236928
0.00779487
-0.0054256
0.00666751
0.00169116
-0.00431092
0.00904566
-0.00253998
-0.0020762
0.00461624
-0.0104694
0.013388
-0.00291852
-0.00549727
0.0147403
-0.00924305
0.00945571
-0.000972855
0.00656988
0.0102427
-0.00125708
-0.0089856
0.00409403
0.0037744
-0.00786843
-0.0115198
0.00585662
-0.00384244
-0.00707848
0.0109209
0.00831459
-0.00453549
-0.00377909
0.00198468
-0.00565353
-0.00406751
0.00972103
-0.00555126
0.00350199
-0.0075695
0.00281318
-0.00872817
0.005915
-0.00625914
0.00907231
0.0057361
-0.00425521
-0.00148089
-0.00896047
0.00484688
0.00411357
0.00835306
0.00136056
-0.00971362
0.0031696
0.00377818
-0.00694778
0.00457898
0.00563685
0.00898251
-0.0107601
-0.0079837
0.00288988
0.00509382
0.0170542
0.0231749
-0.0402291
0.036883
-0.0196566
-0.0172264
0.000212014
0.00644053
-0.00665254
-0.00567633
0.00588834
0.0022086
0.00423193
0.00903076
-0.0039941
0.00359602
0.00485393
-0.00844995
-0.000228141
-0.00468626
0.00571364
-0.00146717
-0.00615343
-0.0115288
0.00923813
0.00229068
-0.0111001
0.0105017
0.00792898
-0.00367689
-0.00425211
0.00161652
0.0117002
0.0118007
0.00575624
0.00594396
0.00613894
-0.00944695
-0.00155871
-0.00884799
0.0104067
0.0129958
0.00179054
-0.0147864
0.0211977
0.00839213
0.0325442
-0.00327102
-0.0065265
0.00979751
-0.00733018
0.00405915
0.00425095
-0.00476487
-0.00931106
-0.0284665
0.0377776
0.000851383
0.00703129
-0.00788268
0.0099285
-0.00763151
-0.00229697
-0.0166
-0.000585319
0.0171854
-0.0443691
0.0203528
0.0240163
0.0353135
-0.0263012
-0.00901234
0.00334961
0.0060563
-0.00940591
0.0132749
-0.0203071
4.43174e-05
0.00662318
0.00523726
-0.00519295
0.00414505
0.00247813
0.0039002
0.00517049
-0.00526149
0.0091617
-0.00185144
0.00702193
0.00886612
-0.0224897
-0.00622395
0.00543523
-0.00594443
0.00431034
0.00163408
9.51766e-05
0.0216779
-0.0253335
0.00365559
-0.00659214
-0.00396565
0.00498148
0.00206537
0.00602277
0.00728102
0.00833456
-0.00647701
-0.00653216
0.00653208
-0.0384195
0.0134663
0.0249531
0.00597734
-0.0075811
0.00160375
0.00751011
-0.00160681
0.00422084
-0.00261403
-0.00191162
0.00191159
0.0192767
0.0176063
-0.00787141
0.00721141
0.000660009
0.0319301
-0.0015379
0.00646218
0.00368744
-0.0101496
-0.00193054
0.00839273
0.00190954
0.00779919
-0.00970873
0.00727486
-0.00395002
0.00880881
-0.00974965
0.0375529
0.0190149
-0.0565678
-0.00539966
-0.00496949
0.0103692
-0.0135161
-0.00308394
-0.000583312
-0.0129328
0.0142137
-0.0172976
-0.00714321
0.00061669
0.0253437
0.00220528
-0.027549
0.00981827
0.0155254
-0.0265033
0.0287086
-0.00248937
0.00740592
-0.00491655
0.00290965
0.00497834
-0.007888
-0.0039268
0.00392675
-0.00467435
0.00822344
-0.0035491
-0.00762236
-0.0342738
0.01651
0.0177638
-0.012596
-0.00808488
0.00454534
-0.00454524
-0.00358705
0.00358702
-0.00319866
0.0127154
-0.00951671
-0.00104863
-0.00868629
0.00973489
-0.00964311
0.00728799
0.00235505
0.000879756
-0.00617724
0.00529748
0.00669339
-0.00133287
-0.00536052
0.00757314
-0.010767
0.00920834
-0.00811361
0.0077499
0.00036369
-0.00511843
-0.00221177
0.00577585
-0.0103118
0.00295083
-0.00295089
0.00489496
0.00307119
0.00499014
-0.0119441
0.00348991
0.00845417
-0.0148943
-2.60132e-05
0.0149203
-2.00192e-05
-0.00991771
0.00993774
-0.00754928
-0.00957582
0.0171251
0.0059777
-0.00423555
0.00306254
-0.00629649
0.00323396
0.0259855
-0.00076245
-0.0252231
0.0235713
0.00379166
-0.00708913
0.00758035
-0.000491238
-0.0114227
0.00478995
-0.0137236
0.00230086
0.013314
-0.00852407
-0.00922069
0.00102359
-0.00649773
-0.00272296
0.00136945
0.00564469
0.0173878
0.0102874
-0.0276752
0.00366012
0.00623917
-0.00989929
0.00741276
-0.0167652
0.00935243
0.00430481
-0.00430471
-0.00917946
0.00254092
0.00663854
0.00284157
-0.00816339
0.00532181
0.00286584
-0.00286587
0.00813649
-0.00516925
-0.0121453
0.0101578
0.00198756
0.0026525
-0.00776128
0.00510877
-0.0125061
0.0141881
0.00459669
-0.00811091
0.00351421
0.00726076
-0.00543909
0.00611624
-0.000677157
0.00583081
0.000819055
-0.00664989
-0.0206604
0.0239257
-0.00326522
0.0207447
-4.07775e-05
-0.0207039
0.0101436
0.00499486
0.0102213
0.0124076
-0.00376508
-0.0100933
0.00447606
-0.00824113
7.57806e-05
-0.0101691
-0.00358559
0.00602759
-0.002442
0.00331073
0.00303969
-0.00635042
-0.00560618
0.00560613
0.00415401
0.00378915
-0.00794316
0.00204844
-0.00204845
0.00540727
-0.00994276
-0.00753329
0.00783221
-0.000298922
-0.26502
0.0598224
0.205197
-0.165506
0.244443
-0.0789377
-0.430525
0.304266
0.00884518
-0.000679507
-0.00816568
-0.00713423
0.000342098
0.00679212
-0.00448174
-0.465217
0.322014
0.143203
-0.153595
-0.311622
-0.000593013
0.0100652
-0.000189471
-0.0147048
0.0138812
-0.00851213
-0.00536904
0.0136917
-0.00713512
0.00638019
0.000754929
-0.00463376
-0.00675588
0.0113896
-0.00685511
0.0062226
-0.00732603
-0.00046934
0.00779537
0.0221391
0.00377673
0.000259453
-0.0209199
-0.03008
0.0338168
-0.00373683
0.010584
-0.00915032
-0.00302759
0.00302758
0.00193133
0.00725151
-0.00918286
-0.00672864
-0.00273976
0.00946839
-0.00479731
0.00451175
0.00308042
0.00388798
0.00639114
-0.0108897
0.0130896
-0.00219987
4.29693e-05
0.0185313
-0.0185743
0.0213497
-0.0213067
-0.000951894
-0.00484388
0.00579578
-0.0343141
0.0100074
0.0243067
-0.0300338
-0.00428027
0.0364568
-0.0264493
0.00456303
0.00252262
-0.00708566
0.00574436
0.00693267
-0.012269
-0.00110875
0.0133777
-0.0103586
-0.00191041
-0.00366551
0.0555229
-0.0518575
-0.0163369
-0.0220827
-0.00571056
-0.00162223
0.00113678
-0.00570505
0.00456824
-0.000924065
-0.00602796
0.00695202
-0.00710618
0.00618211
0.00312896
0.0134834
-0.0166124
-0.0140231
-0.00367122
0.0176943
-0.0108941
-0.006383
0.00722146
-0.000838468
-0.00476678
0.00742088
-0.00159008
-0.0327573
-0.00126221
0.0340194
-0.0127252
-0.020032
0.0341226
-0.0353848
0.0214828
-0.0191216
-0.00541313
-0.00120952
0.00120946
0.00482024
0.00161443
-0.00188698
0.00670722
-0.0129957
-0.0158969
-0.0180709
0.00147178
-0.00147179
0.00319528
-0.00319515
-0.0018408
0.00184083
0.00585506