/*--------------------------------*- C++ -*----------------------------------*\
  =========                 |
  \\      /  F ield         | OpenFOAM: The Open Source CFD Toolbox
   \\    /   O peration     | Website:  https://openfoam.org
    \\  /    A nd           | Version:  6
     \\/     M anipulation  |
\*---------------------------------------------------------------------------*/
FoamFile
{
    version     2.0;
    format      ascii;
    class       volVectorField;
    location    "800";
    object      U;
}
// * * * * * * * * * * * * * * * * * * * * * * * * * * * * * * * * * * * * * //

dimensions      [0 1 -1 0 0 0 0];

internalField   nonuniform List<vector> 
29884
(
(7.48946 0.0591965 -1.04602e-16)
(5.33213 0.0255002 9.01008e-17)
(5.41244 -0.115444 4.97011e-17)
(7.11102 -0.0756843 1.38034e-18)
(7.21615 0.103824 -3.03515e-17)
(5.74351 0.155792 7.34483e-17)
(7.89879 -0.1188 -3.44167e-19)
(7.39863 -0.000821051 4.23909e-17)
(4.6988 0.121044 2.39968e-17)
(7.13534 0.0178983 7.74557e-17)
(7.44395 0.00898968 -3.28756e-17)
(7.20167 0.195543 2.16278e-17)
(8.0791 -0.132013 -2.43082e-17)
(7.17019 -0.112902 2.44029e-17)
(7.19291 0.0989998 -3.27951e-17)
(4.43766 -0.0564771 8.49851e-17)
(8.23639 0.0504898 -3.52944e-17)
(6.67226 0.195263 -5.94885e-17)
(6.52403 0.162585 0)
(4.17993 -0.00367637 -1.6546e-16)
(7.80132 0.208842 1.45194e-16)
(4.94071 -0.0378239 0)
(8.00614 -0.0622499 -4.36892e-18)
(7.11444 -0.0216334 0)
(7.0709 -0.0130677 0)
(7.59617 0.0447099 -2.73832e-17)
(7.85446 -0.0105434 0)
(8.0312 -0.047473 8.55239e-17)
(5.164 -0.024842 8.74153e-17)
(5.17055 0.113329 7.47811e-18)
(5.39804 -0.00787758 -1.86919e-17)
(4.81134 0.0893815 5.02869e-16)
(8.00441 0.0334862 -2.52242e-17)
(7.44134 -0.0304845 0)
(7.27717 -0.0586134 -8.00324e-17)
(7.50815 -0.104789 6.27254e-17)
(5.02316 -0.0359373 8.19542e-17)
(7.54545 0.134975 1.00378e-17)
(5.35194 0.146666 -8.20099e-17)
(7.78263 -0.155615 -3.81212e-17)
(5.02935 -0.0519898 0)
(7.05563 0.0712952 1.90184e-17)
(7.60149 0.195819 -4.82946e-17)
(7.23124 0.282791 -3.17244e-16)
(6.97738 -0.0149763 2.03142e-17)
(7.58252 -0.153681 -2.27152e-17)
(8.04059 -0.21288 0)
(7.67911 -0.120754 -6.78173e-18)
(4.80655 0.0344672 -1.7142e-17)
(8.36013 0.0918463 0)
(7.37379 0.125455 0)
(7.18357 -0.0738405 7.93466e-18)
(4.72197 -0.152086 3.68806e-17)
(8.42311 0.028289 1.0248e-16)
(7.21072 -0.0625483 -8.14863e-17)
(7.09783 -0.137464 6.1956e-17)
(4.41823 -0.0182183 1.17296e-17)
(7.99399 -0.0569491 0)
(6.6734 0.0499097 6.44963e-17)
(6.90852 -0.144195 -1.03548e-16)
(7.77731 0.159135 -1.83147e-17)
(7.82737 -0.0112601 2.44238e-17)
(4.7176 -0.100756 0)
(8.13907 0.0535985 -4.22344e-17)
(7.12471 -0.0687824 2.90881e-17)
(7.01127 0.0806218 -6.24337e-18)
(7.46124 -0.045153 9.14379e-18)
(7.83351 -0.11991 6.05668e-17)
(7.41918 -0.0957205 -4.05696e-17)
(7.33011 0.067082 5.80282e-17)
(7.24748 0.196545 3.80689e-17)
(7.67242 0.0662062 -1.14361e-17)
(7.51796 0.101997 0)
(5.63186 -0.138825 0)
(7.31552 -0.105558 -5.0147e-17)
(6.92 -0.0938483 -1.69254e-17)
(8.14436 0.103853 0)
(7.88993 -0.125294 0)
(8.0964 -0.118779 0)
(5.09865 0.0338049 0)
(7.67157 -0.082154 5.3145e-17)
(5.24926 -0.0514872 0)
(7.11716 -0.135194 0)
(7.01364 0.0953292 2.84056e-17)
(6.55169 -0.051882 -1.9317e-17)
(4.47756 -0.495731 -9.34752e-18)
(7.35741 0.00126858 0)
(7.60936 -0.0312831 0)
(7.26261 -0.107669 4.41094e-18)
(3.61783 -0.823415 1.87632e-17)
(7.20007 -0.199063 0)
(7.90514 -0.251991 -1.98582e-17)
(4.50313 -0.0861062 -5.34018e-17)
(3.29026 -0.693428 0)
(7.11869 0.126499 -4.44312e-17)
(1.31606 -0.283328 0)
(6.9961 0.0141157 -7.58311e-17)
(7.00699 0.0131489 1.00418e-16)
(7.47515 0.0571034 5.41396e-18)
(3.33815 -0.529379 0)
(7.01109 0.0380286 5.01285e-17)
(6.94139 0.0746486 1.12307e-16)
(7.66432 0.0154732 0)
(7.75932 0.0189498 -3.03022e-18)
(7.3639 -0.115681 -4.6634e-18)
(8.13766 -0.121672 0)
(3.76552 -0.621737 1.5253e-17)
(3.65229 0.0597844 -3.79904e-17)
(7.11757 0.132275 -5.02943e-17)
(6.98162 -0.338333 0)
(7.40692 -0.216148 0)
(1.14687 -0.159036 7.67168e-17)
(7.25671 -0.0781699 2.94441e-18)
(7.14658 -0.112834 0)
(7.31141 -0.118421 -2.47872e-18)
(6.97141 0.111327 -2.85427e-17)
(7.15984 0.116427 0)
(7.13983 -0.223182 0)
(6.75841 -0.0835023 0)
(6.64334 -0.328331 4.20513e-17)
(7.00363 0.0061105 0)
(6.85897 -0.315025 2.6724e-17)
(7.32314 -0.165334 4.20515e-17)
(6.77923 0.197167 0)
(7.04494 -0.0276207 1.30856e-17)
(7.05967 -0.191015 -6.15966e-17)
(7.81409 -0.268958 4.67792e-18)
(7.9637 -0.0380018 1.54471e-17)
(6.87956 -0.220772 -4.50704e-18)
(6.98311 0.137918 0)
(6.76535 0.167529 1.34847e-17)
(6.94359 0.119772 -1.5191e-17)
(6.97753 -0.105803 4.12381e-17)
(8.14872 -0.120441 0)
(6.86585 -0.0849531 0)
(7.47691 -0.0886371 0)
(7.64839 0.236914 0)
(7.35215 -0.109045 6.15951e-18)
(7.53967 -0.143875 -1.58102e-17)
(7.54023 -0.130248 3.26119e-17)
(7.39973 -0.114116 0)
(7.27926 -0.0219298 2.56876e-17)
(7.69702 0.137564 -1.88623e-17)
(7.75507 -0.235099 -9.62084e-18)
(7.99702 -0.190054 -1.04824e-17)
(8.02284 -0.21548 1.03444e-18)
(7.77105 -0.183306 1.94791e-17)
(7.48716 0.17716 5.62546e-17)
(7.80795 0.117586 -4.74438e-17)
(7.74599 0.207682 5.19928e-17)
(7.63664 0.125154 0)
(4.25442 -0.10753 -2.45378e-17)
(3.88996 0.0335083 0)
(7.91285 -0.144596 -1.35672e-17)
(7.8334 -0.22121 2.33032e-17)
(7.89595 -0.164181 0)
(7.9373 -0.187071 -7.16939e-18)
(7.82342 -0.208126 0)
(7.87611 -0.12247 0)
(7.91094 -0.17915 0)
(7.86913 -0.153521 -2.37851e-17)
(7.03559 0.0219737 3.55576e-17)
(6.9529 -0.053895 -3.60654e-17)
(7.54497 0.187119 -8.9929e-17)
(1.13019 -0.0673815 -1.14139e-16)
(1.07834 -0.0097979 1.20419e-20)
(4.93185 -0.0755365 0)
(4.72913 -0.00646968 0)
(7.00784 0.0433774 -4.30431e-17)
(7.97961 0.209298 5.4013e-17)
(7.36542 0.0500642 -1.5742e-16)
(6.97983 0.106333 0)
(6.973 0.0767922 0)
(6.84433 -0.0578271 -1.79946e-17)
(7.00816 -0.0595014 0)
(7.02163 -0.189227 7.87596e-18)
(6.82611 -0.273267 -7.02446e-17)
(5.17843 -0.0321196 7.69066e-17)
(7.07177 0.140308 -3.99698e-17)
(7.25738 -0.204443 -7.16268e-18)
(6.99906 -0.291221 -1.58178e-17)
(6.30326 -0.376201 -3.28632e-18)
(6.30017 -0.281495 4.07601e-17)
(6.42177 -0.214793 7.67389e-18)
(7.16782 -0.103688 8.1629e-18)
(7.28122 -0.131 0)
(7.06515 -0.0224372 -6.52186e-17)
(6.98533 0.000346001 3.90312e-17)
(7.30806 -0.243497 -4.14596e-18)
(6.97675 0.108296 3.13165e-17)
(7.38417 -0.17327 0)
(6.55293 -0.0792348 2.65415e-17)
(6.4158 -0.132163 -7.3268e-18)
(7.26302 0.164084 7.6234e-18)
(7.36396 0.131236 -2.93219e-18)
(7.0364 0.155929 0)
(6.84256 0.183186 0)
(7.37548 0.055443 2.71708e-17)
(7.61686 -0.0171743 -8.93173e-18)
(7.46881 -0.128762 0)
(6.7685 0.0292086 0)
(7.59452 -0.0331653 0)
(7.5307 0.0599483 3.57227e-17)
(7.16851 -0.0105307 -3.65065e-17)
(7.37037 0.0708866 -1.01957e-16)
(6.5649 -0.305105 0)
(7.42308 -0.0746819 0)
(7.19609 -0.109881 0)
(7.33074 -0.0412369 0)
(7.86313 -0.120394 0)
(7.70494 -0.119738 0)
(7.88944 0.065231 0)
(8.0938 -0.0805382 0)
(4.76909 -0.0768392 0)
(7.07901 -0.0967764 0)
(4.27211 1.12078 -3.09899e-19)
(6.26076 2.52244 -6.14886e-19)
(4.27445 0.0707644 1.45983e-18)
(6.63302 2.5987 0)
(2.73512 -1.52913 -1.60113e-20)
(2.65751 -1.50367 1.44808e-17)
(7.19609 -4.62237 7.07827e-18)
(6.78676 0.322722 0)
(6.71096 2.25495 0)
(4.12485 -0.875657 -2.14693e-17)
(2.60139 -1.57503 -1.45142e-20)
(4.52533 -0.711533 2.14803e-18)
(2.99648 -0.557099 0)
(2.72558 -5.67527 5.9406e-18)
(7.02306 -1.04807 0)
(5.22984 -4.65945 -7.43382e-20)
(4.42189 -0.755641 2.4629e-18)
(4.67919 0.0111817 2.68784e-21)
(6.30452 -4.4931 -1.97836e-18)
(6.40569 -4.50439 -1.98637e-18)
(4.62123 0.239737 4.7072e-19)
(4.55655 0.249891 -5.89453e-19)
(6.72242 0.2375 -8.49913e-17)
(3.28773 -0.030378 0)
(5.27924 -3.90907 -1.77406e-18)
(5.74928 -3.95422 0)
(1.35124 -0.732531 0)
(4.28643 0.868964 -1.38674e-18)
(5.76532 -4.42411 3.18265e-18)
(6.40804 -3.71905 -1.97858e-18)
(6.41931 1.87952 0)
(4.53541 -1.57415 2.08498e-18)
(4.3797 -0.410775 0)
(5.08338 -1.10892 4.12481e-18)
(6.42457 -2.19677 -1.48273e-17)
(6.6032 -3.9488 -4.05782e-18)
(6.3583 2.89882 2.25659e-20)
(6.34347 2.29515 1.91008e-18)
(6.31742 2.38753 -2.48851e-18)
(2.57812 -1.17505 0)
(2.62996 -1.37851 7.26963e-20)
(2.89913 -1.48604 -1.8727e-17)
(2.80319 -1.43416 -2.50041e-20)
(5.54954 -1.81381 -7.75752e-18)
(5.06281 -1.62064 6.74346e-18)
(6.20365 -1.59387 0)
(6.18546 2.48228 2.61491e-18)
(5.40342 -4.41662 -1.4131e-18)
(1.60216 0.672528 -7.31237e-17)
(6.12003 2.88753 0)
(4.31015 -1.39619 0)
(7.27959 -3.95829 1.62587e-17)
(6.51162 1.99755 2.35975e-18)
(6.56154 2.04635 5.53496e-19)
(4.2949 -1.29075 0)
(6.45968 2.52264 -8.03921e-20)
(6.43266 2.53579 9.94637e-20)
(2.93968 -1.4001 9.42864e-18)
(4.18776 -2.15238 3.38646e-19)
(4.05183 -2.36353 2.73948e-18)
(3.88337 -1.07464 4.36666e-17)
(3.67111 -1.03495 0)
(3.01572 -0.694499 0)
(3.1256 -0.763734 5.1724e-19)
(5.56565 -4.19744 1.45265e-18)
(3.80847 -0.281724 0)
(4.68413 -0.571783 -5.22096e-19)
(6.88764 -0.429726 1.98453e-17)
(6.40573 2.52089 0)
(6.57133 0.19803 5.74292e-17)
(6.32102 2.1756 0)
(6.36365 2.22522 0)
(5.96037 -4.82709 0)
(0.964044 -0.477764 8.40368e-17)
(6.87049 0.316504 -8.13993e-17)
(2.8479 -0.380733 -9.96786e-18)
(4.66827 -0.23038 1.87653e-18)
(4.67742 -0.0714973 -8.88382e-19)
(5.48122 -4.30021 -8.59491e-19)
(6.23782 -4.90475 -7.83485e-19)
(6.26056 -4.86737 -2.49867e-18)
(6.22695 2.38812 3.80313e-18)
(4.67042 -0.3146 -3.00497e-18)
(4.67646 -0.481826 1.10292e-18)
(5.873 -4.30932 -1.4809e-18)
(6.3077 -3.43635 0)
(4.55743 -0.918123 0)
(4.60403 -0.843569 0)
(4.56922 -1.01776 0)
(3.04992 0.458744 -1.76944e-17)
(3.74205 -1.7303 9.35553e-18)
(4.11337 -1.33134 0)
(6.10933 0.115667 -1.72155e-17)
(6.28402 2.3762 -6.16118e-19)
(6.2552 2.31092 -2.19196e-18)
(6.29716 2.31692 -2.49121e-18)
(6.24448 2.37048 -4.84737e-18)
(2.8852 -1.63189 -2.10677e-17)
(5.18272 -4.20695 5.74475e-19)
(5.25327 -4.27191 -1.26701e-18)
(6.32317 -4.87938 3.88467e-18)
(6.52771 -4.18006 0)
(4.59152 -0.520955 2.02864e-18)
(7.07474 -3.38817 -5.13022e-18)
(7.25281 -3.73076 -1.09553e-18)
(6.70238 -2.89818 4.01208e-18)
(3.30967 0.135669 0)
(3.17017 0.372066 -1.75998e-17)
(3.15333 0.165989 0)
(6.39997 -4.97918 -1.42642e-18)
(6.42483 2.46532 1.08462e-19)
(2.98384 -1.89606 -1.41179e-17)
(2.90686 -1.7055 1.86779e-17)
(3.01766 -1.71913 2.25815e-17)
(2.84354 -1.88812 6.56978e-18)
(6.37061 2.44872 1.16477e-18)
(6.41938 2.42613 -1.6718e-18)
(6.40149 2.40325 3.58434e-19)
(6.39785 2.4615 4.25559e-19)
(4.25733 0.927366 2.70259e-18)
(4.15928 1.04686 -1.58752e-18)
(6.80781 0.288055 -2.68761e-19)
(6.13263 -0.747768 -3.66622e-17)
(2.81711 -0.7116 -2.02786e-17)
(2.79392 -0.947001 0)
(7.21029 -3.47824 -6.09996e-18)
(7.54586 -0.472311 -4.12568e-17)
(2.77761 -1.31757 5.89563e-18)
(5.77835 -0.882226 -2.14576e-18)
(7.1238 -0.242993 8.65902e-18)
(2.78591 -0.567932 0)
(2.88539 -0.555318 1.91634e-17)
(2.85133 -0.484628 6.62432e-20)
(2.82792 -0.607808 -5.53558e-18)
(3.53036 -0.0615621 3.24257e-19)
(3.52715 -0.23889 0)
(3.31959 0.00288065 -6.91846e-18)
(6.46753 2.49875 0)
(6.45131 2.47792 0)
(6.49776 2.48469 2.02655e-19)
(3.23035 -0.427707 0)
(3.0653 -0.439548 3.32582e-17)
(3.01409 -0.0937085 0)
(3.03093 -0.314111 -3.60307e-17)
(3.09054 -0.165532 0)
(3.34093 0.603827 -6.54146e-18)
(3.58319 0.294337 3.81033e-17)
(6.18068 0.166992 -6.21546e-17)
(6.72011 2.15813 -1.08402e-18)
(6.31507 2.41705 9.10509e-19)
(6.3457 2.44402 -1.89275e-18)
(6.70176 -0.647644 6.10814e-18)
(6.75084 -0.415133 0)
(1.16583 0.427826 0)
(2.61782 -0.526811 -8.36126e-18)
(7.0567 -3.62323 0)
(6.74232 -3.82222 -1.26295e-17)
(7.12061 -0.262215 -2.00879e-17)
(7.14398 -0.248149 1.58721e-17)
(7.08063 -0.298977 0)
(6.19487 2.53291 1.36501e-18)
(6.24254 2.59801 6.64056e-19)
(6.7974 -4.25144 4.74826e-19)
(6.26218 -4.92992 0)
(6.34415 -4.95529 1.88123e-18)
(6.23622 -4.95994 1.9501e-18)
(5.20835 0.239982 1.02772e-16)
(6.50365 -0.50664 -5.62186e-17)
(6.52252 -0.631656 0)
(6.59535 -0.42949 -2.45961e-17)
(6.07202 -4.19821 0)
(6.27385 -4.28429 4.11036e-18)
(6.16023 -4.33399 -5.98829e-21)
(6.1526 -4.21162 -3.81114e-18)
(4.16505 -0.342856 0)
(3.91917 -0.110438 -2.1686e-18)
(3.84193 -0.314346 -3.3277e-17)
(4.17907 -0.199996 0)
(6.39629 -4.34631 2.1199e-18)
(6.44265 -4.45272 2.63188e-19)
(6.51222 -4.29756 -1.47059e-18)
(4.40994 0.647972 2.18809e-18)
(4.3754 0.53127 0)
(6.29147 -3.81129 0)
(5.96969 -3.93332 -3.31645e-18)
(3.87988 0.434622 -5.41831e-19)
(3.58116 0.802544 -8.47273e-18)
(4.23651 -0.534237 -5.3834e-19)
(3.98552 -0.63941 1.84217e-17)
(4.13397 -0.663068 -1.17412e-17)
(4.15931 -0.430266 1.06284e-17)
(3.68888 -3.03021 -1.97e-18)
(6.67221 0.258799 1.03318e-17)
(6.66022 0.229151 0)
(6.87833 0.144549 0)
(6.81126 0.177955 5.8401e-18)
(4.08427 1.28347 0)
(4.20029 1.1854 0)
(2.8289 -0.1718 -2.38099e-17)
(2.81861 -0.055376 1.4664e-20)
(2.7454 -0.198161 1.0965e-17)
(3.31491 -1.23211 0)
(6.1763 -1.45174 0)
(3.7778 1.63602 -1.02211e-19)
(3.97569 1.55568 -2.07253e-18)
(4.09255 1.10446 -1.55624e-18)
(5.09908 -3.91629 0)
(3.09036 -1.16568 9.30504e-18)
(3.17088 -1.03412 1.83015e-17)
(2.95804 -1.12438 0)
(3.4985 -0.495463 0)
(3.74959 -0.326107 4.3081e-17)
(3.58258 -0.290772 -5.29752e-18)
(3.72613 -0.490923 -3.14253e-17)
(3.04406 -1.42863 1.83252e-17)
(3.20621 -1.31515 0)
(3.11049 -1.26554 -1.92863e-17)
(3.17101 -1.44095 0)
(7.64778 -0.413454 1.47291e-17)
(3.6162 -1.39197 0)
(3.41501 -1.25875 0)
(3.58665 -1.19725 0)
(3.42439 -1.41235 1.5383e-17)
(7.08375 -2.80766 0)
(7.21939 -2.60412 -8.68081e-18)
(4.47576 -1.17888 -6.16674e-19)
(4.55647 -1.07788 0)
(4.54703 -1.17279 5.60521e-19)
(4.48955 -1.09385 0)
(6.90116 0.0771465 3.62e-19)
(6.8659 0.0101302 0)
(6.5118 0.320719 3.38632e-17)
(6.75389 -4.1776 2.1515e-19)
(6.66385 -4.02138 3.70065e-18)
(6.81438 -4.07347 3.48234e-18)
(6.61979 -4.14068 4.0694e-18)
(6.84649 2.13012 0)
(7.25702 0.457939 -2.75697e-17)
(4.44312 -1.53581 1.93913e-17)
(4.53734 -1.24648 -3.55203e-17)
(7.011 -0.350598 1.64417e-17)
(7.10215 -0.279151 -1.13833e-18)
(7.02804 -0.326065 -1.08027e-17)
(6.84545 1.40051 2.56221e-18)
(3.87659 -0.19508 -3.48786e-17)
(2.0561 -0.190308 0)
(6.06994 -0.493354 -2.39865e-17)
(6.19317 -0.480462 5.50209e-18)
(6.36029 2.96892 -1.44916e-19)
(6.06754 -4.45848 0)
(6.14246 -4.3955 2.75318e-20)
(6.20626 -4.44465 2.27113e-18)
(6.03257 -4.37098 2.03651e-18)
(4.2178 -1.22204 0)
(4.44036 -0.91336 -6.11953e-18)
(4.24718 -0.960026 0)
(4.44346 -1.15486 3.90328e-17)
(6.90357 0.115343 0)
(6.91355 0.0787496 1.4004e-17)
(6.90193 0.0965689 0)
(7.00322 0.0747804 5.41047e-19)
(6.99989 0.0943187 -1.74789e-17)
(7.57369 -0.18354 0)
(7.24035 -0.225603 -4.64987e-18)
(7.3752 -0.225739 4.92457e-18)
(7.41623 -0.181307 0)
(6.63374 0.184283 0)
(6.74761 0.0913154 -7.17884e-17)
(6.71453 0.164291 5.15508e-18)
(6.64881 0.133542 4.43342e-17)
(5.74713 -4.3781 -3.40618e-18)
(5.65933 -4.25466 0)
(5.60727 -4.3294 0)
(5.7953 -4.3146 0)
(6.22341 2.47013 1.37383e-18)
(6.2544 2.4963 -7.53797e-19)
(6.24533 2.43169 1.13469e-18)
(2.7903 -1.0272 0)
(2.70005 -1.1301 7.16299e-18)
(2.70734 -1.05008 -7.54589e-18)
(2.79552 -1.12548 -5.78934e-18)
(6.50637 0.212242 -9.55577e-18)
(6.38408 0.24247 3.74437e-18)
(6.45379 0.184819 9.54515e-17)
(1.89461 -0.252735 -2.80408e-17)
(2.0746 -0.0161003 2.38403e-17)
(6.94113 0.151477 0)
(2.10044 -0.191094 -9.93378e-19)
(5.36248 0.112495 -1.233e-16)
(6.99576 0.0214691 4.95509e-17)
(7.01991 0.0780994 2.11174e-17)
(1.84889 -0.915285 -9.06597e-18)
(2.07162 -0.973575 1.57183e-17)
(7.01122 0.119996 6.18093e-17)
(7.01016 0.086878 6.72112e-17)
(7.00878 0.0941924 -2.21342e-17)
(6.95636 0.208804 8.75156e-17)
(6.71252 -2.19778 1.63194e-17)
(7.00202 0.249448 0)
(5.97226 -0.0882295 1.54093e-17)
(1.25842 -0.212426 -6.22233e-21)
(1.68765 -0.264929 0)
(6.77354 0.239125 -5.93209e-17)
(4.36834 -1.22277 0)
(7.45106 0.0191602 -4.75707e-17)
(6.99901 0.147365 4.61988e-17)
(6.81767 -0.0152471 0)
(7.90902 -0.420862 0)
(7.34435 0.348472 0)
(7.33042 0.423861 3.10033e-17)
(1.50779 0.440656 2.49333e-17)
(7.75788 -0.297549 7.94388e-17)
(7.70138 -0.361006 0)
(7.14086 0.182054 -4.20553e-18)
(6.84757 0.285502 0)
(7.25382 -2.61422 8.76006e-18)
(6.01789 -0.0751531 1.26505e-17)
(7.18279 -0.16695 -1.61009e-18)
(7.12426 -0.215112 2.81701e-18)
(7.16621 -0.194181 4.23866e-19)
(7.58859 -0.238083 0)
(6.65725 -0.46425 -6.15287e-18)
(6.63507 -0.584222 8.50061e-18)
(8.116 -0.22971 3.75699e-17)
(8.16641 -0.142316 -3.82018e-17)
(8.08386 -0.135734 8.28535e-17)
(6.93669 -0.118193 2.30535e-18)
(6.83162 -0.0952004 2.50735e-18)
(6.9741 0.185171 2.59084e-17)
(6.96926 0.158892 2.54088e-17)
(7.00051 0.0236988 2.74747e-17)
(7.00295 0.0377123 5.97755e-17)
(6.41114 -0.38737 0)
(2.92322 0.431867 0)
(6.80661 -0.468023 0)
(6.78545 -0.593681 0)
(7.15553 -0.165452 2.74735e-19)
(6.98207 0.263714 -2.67216e-17)
(6.21219 -0.0837962 -7.53057e-18)
(7.00272 0.175745 -4.73069e-17)
(6.99199 0.216958 0)
(6.99125 0.198002 1.01514e-18)
(2.09953 0.318294 0)
(6.93539 0.117945 -1.37274e-17)
(6.9454 0.106524 1.35589e-17)
(7.26979 -3.51066 7.45113e-18)
(6.96534 -2.99187 0)
(6.98065 -2.8526 3.17554e-18)
(7.42585 -0.38806 -7.01964e-17)
(7.18936 -0.0547725 0)
(8.30009 -0.0230272 0)
(6.568 -0.0592362 -2.65239e-18)
(6.52132 -0.0517757 -1.92878e-17)
(6.83088 -0.0556634 2.71144e-17)
(4.58759 -0.259052 6.52738e-17)
(4.80197 -0.258848 0)
(7.53183 -0.407943 -8.10875e-17)
(7.47247 -0.380204 6.37339e-17)
(8.07498 0.0389814 -3.37047e-17)
(8.18709 -0.123434 0)
(5.99687 -0.169333 0)
(7.0894 -0.00502365 0)
(7.18342 0.401209 1.00091e-17)
(7.16145 0.349659 0)
(8.0931 -0.139762 0)
(8.29694 -0.104832 -2.2957e-17)
(1.76642 0.56691 0)
(7.12787 -0.247356 -1.1039e-18)
(7.27469 0.00778491 0)
(4.55403 -0.74008 -3.15449e-17)
(7.22419 0.126404 -1.07169e-19)
(7.2337 0.0836169 8.67195e-18)
(1.04595 -0.0887332 -7.91251e-17)
(3.6657 0.442137 1.5624e-17)
(3.51202 0.62642 -9.74487e-18)
(6.79381 0.216432 5.23847e-17)
(6.99716 0.0552869 -2.55581e-17)
(6.99222 0.0742 -2.68581e-17)
(4.56977 -0.804078 -3.53491e-17)
(6.45587 2.06316 -2.1392e-18)
(6.13465 0.00303666 -3.59206e-17)
(6.00513 -0.051439 0)
(2.65941 -1.19489 1.26178e-17)
(2.68634 -1.29131 -1.27898e-17)
(6.65357 0.0779106 -4.45848e-19)
(6.54312 -0.00589164 7.55412e-17)
(6.64379 0.0087729 0)
(6.99934 0.0958062 5.5189e-17)
(7.00244 0.128925 2.00473e-18)
(2.20331 0.572521 0)
(6.96356 0.254346 -5.56311e-17)
(6.59918 0.244865 -5.60611e-17)
(6.56559 0.317624 -3.34513e-17)
(6.86201 0.238641 1.022e-16)
(6.90085 0.23973 -7.35806e-17)
(6.91839 0.203012 -2.95125e-17)
(7.30252 0.056929 -5.50443e-17)
(6.25582 -0.0242399 2.44567e-17)
(6.37513 0.0390697 -6.02763e-17)
(6.15143 -0.190514 -1.39326e-17)
(6.27021 -0.106836 -8.5272e-17)
(7.51754 0.0108201 0)
(7.66765 0.0768423 -2.44368e-18)
(7.18231 -0.141141 -2.0205e-17)
(7.87943 -0.000156444 5.19675e-17)
(6.55066 2.13406 1.38624e-18)
(6.98202 0.140834 4.08666e-18)
(7.06214 -0.323839 0)
(7.0984 -0.274017 5.84843e-18)
(3.67235 -0.302491 0)
(3.94833 -0.327504 7.92669e-17)
(7.47234 0.193628 -5.11498e-17)
(7.82662 0.160289 -2.39668e-17)
(7.52655 0.121983 -8.47509e-18)
(7.44117 0.14508 5.79398e-18)
(5.62861 -0.129027 0)
(5.4288 -0.163133 0)
(3.38664 -1.5073 -2.13956e-17)
(3.18912 -1.5195 0)
(3.11173 -1.68802 -1.80966e-17)
(2.76065 -1.65192 -1.5814e-17)
(7.01669 0.0551539 -8.06727e-18)
(6.72671 0.203852 0)
(6.80773 0.191841 0)
(7.52568 0.0244448 0)
(7.85879 0.030251 -6.59322e-17)
(4.00477 0.232879 -2.89736e-17)
(4.20009 0.187069 2.44763e-17)
(8.36213 0.0872021 -1.50806e-17)
(8.23001 0.153291 -1.92675e-16)
(8.08467 0.0491763 -7.21017e-17)
(7.14287 0.0800872 0)
(7.70444 0.23673 0)
(7.02851 0.0785634 0)
(7.41597 -0.0526442 0)
(7.02379 0.184549 -4.76395e-16)
(4.90697 0.0305736 5.36674e-16)
(7.45625 0.173169 9.0014e-17)
(7.24197 -4.32488 0)
(7.26476 -4.09055 0)
(6.98806 0.026175 -2.6442e-17)
(6.95174 0.0483307 -6.16298e-17)
(7.02171 0.0428189 2.02847e-17)
(6.93643 0.0626154 8.973e-17)
(7.92269 -0.265516 6.42219e-17)
(4.96486 -0.0371281 -4.59087e-17)
(5.13316 -0.102617 -5.87964e-17)
(5.30346 -0.012918 9.22622e-17)
(6.89275 0.125605 0)
(6.88052 0.148932 0)
(6.85017 0.184616 0)
(6.8719 0.176 -3.02047e-17)
(6.82958 0.218294 0)
(7.0012 0.0639078 4.10173e-17)
(7.31155 -0.0793859 5.69556e-17)
(7.02388 -0.135271 -4.84912e-17)
(7.59726 -0.375324 1.09511e-16)
(7.68628 -0.306821 -7.303e-17)
(7.66242 -0.285831 -6.71633e-17)
(7.63682 -0.269833 0)
(7.46922 -0.28629 2.54715e-17)
(7.54354 -0.311817 -2.53982e-17)
(4.78157 -0.0796398 -2.23456e-17)
(6.92496 -0.0380871 -6.14538e-18)
(7.83853 -0.234213 2.3878e-17)
(4.94266 -0.416138 0)
(5.12023 -0.361754 -2.61733e-17)
(5.32653 -0.367259 -4.52587e-17)
(2.84776 0.38361 1.07834e-17)
(2.88099 0.435793 9.37269e-18)
(6.38293 0.100224 2.97047e-17)
(6.28824 0.130633 0)
(3.39646 -0.861566 -3.23402e-18)
(3.31175 -1.02842 0)
(7.69878 -0.098248 -1.28299e-17)
(7.85404 0.0333293 0)
(7.78058 0.113444 2.59706e-18)
(3.83375 0.934658 3.92717e-18)
(3.76408 0.907556 4.35456e-20)
(5.22026 -3.35827 3.35898e-19)
(5.23059 -3.45275 -3.07074e-19)
(2.56911 -0.889231 0)
(3.90018 1.91449 -1.31502e-18)
(7.56574 0.403443 -6.16196e-20)
(5.80027 1.56928 0)
(6.28569 1.37876 8.40484e-20)
(6.00652 1.38813 -2.33486e-19)
(2.45622 0.43823 0)
(5.7292 -2.1297 -2.44882e-19)
(9.22433 1.11444 -9.88948e-19)
(7.69054 0.608563 2.68187e-19)
(8.66841 -0.221187 2.20388e-18)
(6.48212 3.32566 -8.63929e-20)
(2.56663 0.462237 4.2293e-18)
(4.91178 -4.29532 6.82307e-19)
(6.67033 -5.21677 0)
(4.28474 -0.697992 0)
(9.16656 1.10481 0)
(4.87652 -4.20182 0)
(4.91472 -4.23276 0)
(6.04932 2.22275 5.7293e-20)
(6.05278 2.23886 0)
(6.18176 1.12452 1.49458e-19)
(6.82094 1.15625 1.49177e-20)
(6.82342 1.19367 -1.68031e-20)
(5.81759 1.50397 1.56015e-19)
(6.76571 -0.790859 8.55085e-20)
(6.7874 -0.880687 3.73377e-20)
(5.44302 -4.71267 7.01846e-19)
(6.03507 1.37112 -1.32051e-20)
(6.08356 1.32723 0)
(7.31266 1.22821 1.53815e-19)
(7.15987 1.02615 -7.19572e-21)
(7.17025 1.05532 -2.02456e-19)
(6.87735 1.1854 0)
(6.10108 -1.90827 0)
(6.09789 -1.84244 2.11688e-21)
(4.13267 -2.49561 1.56836e-18)
(6.18106 1.48334 1.12865e-19)
(6.17122 1.461 -2.93633e-20)
(4.91666 -3.86514 0)
(1.51674 -2.03041 3.49428e-17)
(3.789 1.75924 9.02511e-19)
(3.85454 1.80564 -1.38221e-20)
(2.48399 0.0365115 4.47592e-18)
(3.29752 -1.46143 -1.97337e-17)
(5.97508 2.61936 5.42117e-19)
(8.42618 0.891869 3.71751e-19)
(6.29077 -5.07484 -1.55025e-19)
(2.29911 -0.938106 -1.6031e-18)
(6.58986 2.34954 0)
(6.68722 2.54727 -2.95153e-20)
(5.82946 -2.30726 1.08157e-19)
(3.12381 1.23419 -1.47421e-20)
(6.68229 -5.147 -2.49544e-19)
(6.69757 -5.12994 6.60369e-19)
(5.79349 -1.2749 0)
(6.588 -1.04589 0)
(6.42428 -1.33149 -7.50524e-20)
(6.87218 2.96589 -2.23046e-19)
(6.90472 0.937222 -7.40556e-20)
(6.65072 -1.17444 5.43791e-21)
(6.26815 2.38744 0)
(5.05762 1.33296 0)
(8.09721 0.398031 0)
(5.75667 -2.27773 -7.01384e-20)
(3.25388 -3.72053 -3.23909e-20)
(3.42515 -3.51601 1.1116e-18)
(6.8203 -0.843193 0)
(6.83418 -0.953888 8.78519e-18)
(5.93172 -4.91628 -6.91389e-19)
(6.82815 2.78093 -1.02653e-19)
(3.8904 -2.0133 9.9846e-19)
(7.60421 0.902474 -4.71228e-19)
(5.41934 -4.74767 0)
(6.42457 3.3691 0)
(6.36266 3.33206 -1.35196e-20)
(6.02198 2.67162 0)
(4.84159 -3.13769 -4.19892e-18)
(6.52706 3.74888 0)
(6.66013 2.85934 3.3045e-20)
(6.39702 1.40128 0)
(4.37913 1.17308 5.59158e-19)
(4.36636 1.12211 2.74803e-19)
(5.91944 1.20687 4.23298e-19)
(7.5156 0.949963 0)
(7.50884 0.991777 0)
(7.59342 0.947561 4.65413e-19)
(5.3517 -2.61622 8.52764e-18)
(6.69996 1.39855 3.70476e-21)
(7.75549 -0.291703 0)
(7.73876 -0.206558 -9.13708e-20)
(2.27269 -1.97327 5.49878e-18)
(6.58118 1.22888 -1.98785e-20)
(6.6073 1.24685 0)
(2.63685 -0.121679 6.58041e-18)
(2.69787 0.0436456 0)
(8.06909 -0.0543612 -7.37978e-19)
(8.06303 -0.000791766 -4.91124e-19)
(6.17369 3.37157 -5.781e-21)
(6.76893 -5.12888 3.01222e-18)
(4.44714 -0.83424 1.31685e-18)
(6.72337 2.44047 6.03034e-21)
(6.67514 2.74542 -1.21324e-19)
(6.31158 2.517 1.77432e-18)
(7.24241 -0.468458 -9.43989e-21)
(2.60272 -4.37512 6.75901e-18)
(6.74639 1.22245 1.49674e-21)
(6.73951 1.1944 -7.93435e-22)
(7.50015 3.20606 3.71332e-19)
(6.59049 -1.19993 0)
(6.46652 -1.27701 4.55045e-20)
(5.15943 -4.63885 1.01306e-18)
(1.60488 -1.37228 -6.88369e-18)
(4.29047 1.63452 2.29537e-18)
(7.77765 -0.602356 7.87606e-19)
(5.50569 -2.6926 -1.625e-19)
(5.50946 -2.77184 4.07217e-19)
(4.04789 1.67606 -9.93454e-19)
(3.92884 1.78169 -1.33582e-18)
(6.6767 -1.10285 -4.8089e-21)
(6.66088 -1.05129 3.67959e-20)
(6.76289 -3.83885 0)
(7.49937 -4.76626 0)
(7.11106 -0.374803 1.90961e-19)
(7.6725 -0.194066 7.09424e-19)
(7.93816 1.05145 0)
(3.70532 0.979182 -3.7994e-18)
(7.13469 1.20856 0)
(7.05193 -2.84625 6.74967e-19)
(2.089 -1.80902 2.36281e-17)
(7.06491 -3.98515 0)
(6.40934 2.35211 -7.31608e-20)
(4.85548 -4.245 -2.47391e-19)
(4.86292 -4.269 1.05456e-18)
(6.18285 2.43498 0)
(6.21732 2.42681 -4.21049e-19)
(6.74833 2.31465 0)
(4.93892 0.274974 0)
(6.12155 1.08137 -8.87073e-20)
(8.66108 -2.55333 1.40995e-18)
(5.10144 -2.13844 0)
(5.85587 -2.549 0)
(6.31664 1.26023 -9.03925e-20)
(6.9069 -4.71123 3.16407e-20)
(6.74518 -0.935093 1.98465e-17)
(6.31986 -0.797129 -1.63364e-21)
(7.22842 -5.35886 -2.31177e-18)
(7.32721 -5.3616 0)
(5.91126 1.71643 0)
(2.12853 -4.01162 1.04945e-17)
(3.15743 0.563694 -2.02034e-18)
(6.67798 3.46506 2.01544e-19)
(5.93168 -1.87709 7.71279e-20)
(6.03847 3.2112 0)
(4.29658 1.50719 8.4737e-19)
(4.40182 1.46263 1.56809e-18)
(6.64116 -0.319019 -1.81762e-19)
(5.74691 1.59242 2.92379e-19)
(6.37782 -1.08845 -6.05122e-21)
(6.38109 -1.16872 5.8528e-20)
(7.495 1.2399 -1.85271e-19)
(6.20651 1.08465 -1.61071e-19)
(6.58598 1.17342 0)
(6.66514 1.14619 1.88182e-20)
(5.17642 -3.49818 0)
(5.07512 -3.57458 0)
(4.49609 -0.636854 0)
(2.61649 0.576547 -3.45707e-18)
(2.57975 0.540255 0)
(2.58766 0.685812 0)
(6.88455 0.13899 6.74134e-20)
(6.80332 2.7465 3.42456e-20)
(7.50676 3.25732 2.12922e-19)
(4.63997 -1.57964 0)
(4.58839 -1.61207 5.31166e-19)
(5.08635 1.31253 0)
(6.56382 2.38073 8.82867e-21)
(4.22511 1.83048 0)
(2.49433 -0.887397 4.55194e-18)
(5.08063 0.324099 1.68844e-18)
(5.12033 0.317944 -7.30038e-20)
(7.57659 0.789166 -4.40531e-19)
(6.80096 0.660897 8.36508e-18)
(6.63638 2.81778 2.40129e-19)
(4.92385 0.418144 0)
(4.94865 0.356215 0)
(7.34843 1.58772 -3.63786e-20)
(6.5116 2.37862 0)
(6.42856 -5.12071 0)
(5.95108 -0.0358056 -7.40044e-21)
(6.58284 -5.18626 -8.05786e-19)
(6.06877 1.44977 -1.13357e-19)
(6.05582 1.42489 1.71305e-19)
(4.26539 -0.607984 -8.05237e-19)
(6.109 -1.21253 2.82738e-20)
(6.43862 -4.82215 -3.34111e-19)
(6.57277 2.30526 2.81694e-20)
(6.51297 -5.10665 4.37451e-19)
(6.69569 0.808285 -2.54696e-21)
(6.6398 0.81987 -3.02481e-20)
(4.11495 1.77729 -1.87909e-18)
(4.78378 1.16125 0)
(4.76385 1.20627 5.49143e-21)
(5.10142 -5.00216 5.24689e-19)
(6.4734 0.395185 0)
(6.39477 2.25061 1.77567e-19)
(5.50786 -4.74984 0)
(5.49721 -4.76677 7.29677e-19)
(4.67563 0.9004 -2.2774e-19)
(6.45983 1.28439 0)
(6.53319 1.28023 0)
(6.51737 2.24852 1.89187e-20)
(6.67143 2.35359 9.85732e-21)
(6.71499 2.38859 -2.60713e-21)
(5.04757 -5.59719 -2.77658e-19)
(7.78763 0.696417 -3.50952e-19)
(7.88041 0.673686 0)
(8.59284 -2.59136 2.8413e-18)
(6.54915 -1.1686 -5.70436e-20)
(6.54948 -1.09202 -2.51176e-20)
(6.47644 -1.21255 1.25433e-19)
(5.73045 1.04436 6.77637e-20)
(5.73449 1.10022 0)
(5.90979 0.891248 0)
(5.89253 0.848898 0)
(6.82615 -0.323109 0)
(6.87375 -0.299837 0)
(8.29619 1.07642 5.59222e-19)
(5.65861 3.41705 1.64942e-19)
(6.76001 2.97257 1.99764e-19)
(6.80692 2.95307 0)
(7.19593 -4.76632 4.80878e-18)
(5.7679 0.171811 0)
(7.19406 -4.62422 0)
(4.8706 0.823977 7.18686e-19)
(6.44173 -5.11143 -4.8554e-19)
(6.34189 -5.07555 1.00096e-18)
(7.08905 -4.35017 2.68344e-19)
(5.79379 -1.47989 2.66894e-19)
(6.66055 -5.32397 0)
(6.4862 2.27658 4.22562e-20)
(6.44372 2.24198 0)
(7.54028 -1.505 -4.20283e-19)
(7.55667 -0.85547 -7.14201e-19)
(6.66545 1.28859 1.06739e-20)
(4.88027 0.135191 0)
(6.61092 -4.63805 5.58843e-19)
(5.82394 2.78341 0)
(5.75496 2.76954 2.42282e-18)
(6.42323 -5.12799 -1.15585e-19)
(5.01247 0.642571 1.23575e-18)
(7.97498 1.11595 0)
(1.67267 -1.72492 0)
(6.48762 1.69833 0)
(6.40562 1.79759 0)
(5.85558 -1.47027 3.97981e-19)
(6.40448 1.43661 2.732e-20)
(6.33612 1.44959 -9.72378e-21)
(6.53213 2.63087 7.73826e-20)
(6.49694 2.65397 -1.59763e-20)
(6.43026 1.01697 0)
(6.14829 2.46012 -2.72172e-18)
(8.63415 0.663054 0)
(8.51512 0.669494 1.45793e-18)
(5.95668 1.43718 0)
(6.11535 2.96468 0)
(6.14941 3.10035 3.28764e-20)
(6.31959 -0.628453 3.48207e-20)
(6.59263 3.08569 -9.17281e-20)
(6.57403 3.22242 0)
(6.06841 -1.03813 -1.80951e-19)
(7.346 -0.609388 1.7923e-19)
(7.49565 -0.527641 5.1239e-19)
(5.97314 2.26387 -2.13479e-19)
(6.0278 2.24886 0)
(7.25415 0.999033 -7.45307e-21)
(8.21284 0.913712 -3.4032e-20)
(8.22449 0.972426 3.16148e-20)
(5.98909 -1.35443 -2.51371e-19)
(5.93476 -1.48513 0)
(2.05506 -1.10625 0)
(5.11704 -4.42966 -8.16143e-19)
(4.97555 -4.37322 9.64724e-19)
(6.33473 -1.44188 -1.90349e-20)
(2.82462 0.519582 0)
(6.81779 2.82203 -8.02368e-21)
(6.78451 2.83318 8.92869e-20)
(4.7991 -4.2872 0)
(4.6133 -4.13681 -2.2262e-18)
(6.05627 -1.32142 -1.95089e-20)
(6.0729 -1.22885 7.78463e-20)
(6.00658 -1.30957 2.23536e-19)
(4.47524 0.766536 2.2663e-18)
(4.36278 0.848426 1.32081e-18)
(6.55949 -5.08976 1.54868e-18)
(7.26873 0.713258 2.25457e-19)
(6.43673 0.947694 -5.70814e-21)
(6.37337 -5.07556 0)
(6.35087 -5.05989 0)
(6.42721 -5.09533 0)
(3.48454 -3.33011 9.59515e-19)
(3.54001 -3.39925 2.69169e-18)
(4.12322 -0.994867 0)
(6.04505 -0.804066 -6.98549e-20)
(8.6768 0.0548707 -2.49975e-19)
(8.70564 0.0182886 0)
(5.75367 -0.684774 -2.98646e-19)
(5.75933 -0.761143 1.93116e-19)
(6.74133 -5.1526 -2.0064e-18)
(6.72118 -5.14148 1.72115e-18)
(6.74077 -5.18 0)
(4.56297 1.30005 9.46421e-19)
(4.51005 1.38882 7.30938e-19)
(3.32077 -3.11614 0)
(6.56211 -5.16617 -1.01922e-18)
(6.79754 3.1547 -4.52124e-20)
(5.96116 2.33021 4.07279e-18)
(5.20484 -4.59166 7.7193e-19)
(5.20708 -4.61857 0)
(2.57505 -3.23234 -8.48061e-18)
(7.84727 -0.399625 8.12668e-19)
(7.63623 0.395559 5.89134e-19)
(7.7709 0.34946 1.82535e-19)
(6.10688 1.38136 -2.51755e-19)
(2.52309 -0.0984195 -6.4853e-18)
(6.2845 3.18501 0)
(6.37742 3.18537 0)
(6.67723 -0.744623 -1.14151e-17)
(6.7349 -0.846158 0)
(6.38943 -3.49133 0)
(7.92009 -0.120614 -7.9627e-19)
(7.89874 -0.0487432 1.17997e-18)
(7.49334 -0.767738 0)
(7.41698 -0.729154 -2.42039e-19)
(6.29384 2.51784 7.76744e-20)
(6.28351 2.52676 1.23397e-18)