/*--------------------------------*- C++ -*----------------------------------*\
  =========                 |
  \\      /  F ield         | OpenFOAM: The Open Source CFD Toolbox
   \\    /   O peration     | Website:  https://openfoam.org
    \\  /    A nd           | Version:  6
     \\/     M anipulation  |
\*---------------------------------------------------------------------------*/
FoamFile
{
    version     2.0;
    format      ascii;
    class       volScalarField;
    location    "300";
    object      nuTilda;
}
// * * * * * * * * * * * * * * * * * * * * * * * * * * * * * * * * * * * * * //

dimensions      [0 2 -1 0 0 0 0];

internalField   nonuniform List<scalar> 
29874
(
0.252363
0.20783
0.121557
0.155389
0.179845
0.242149
0.217081
0.141059
0.152895
0.141857
0.268503
0.258593
0.1822
0.263692
0.265688
0.28353
0.176129
0.275882
0.118826
0.141922
0.140659
0.14378
0.140463
0.153426
0.144521
0.177544
0.218249
0.14392
0.23401
0.233632
0.228679
0.195164
0.193108
0.221164
0.151324
0.158063
0.142183
0.162916
0.164357
0.200671
0.139861
0.139625
0.145168
0.133103
0.190577
0.160471
0.178512
0.245873
0.239764
0.240658
0.193893
0.290245
0.26724
0.278453
0.198449
0.191897
0.134817
0.169862
0.166071
0.172017
0.163796
0.149095
0.147472
0.167429
0.123465
0.189843
0.238797
0.176751
0.262804
0.284186
0.154942
0.148346
0.144381
0.109381
0.28462
0.228178
0.230446
0.224865
0.183101
0.164591
0.1922
0.116797
0.138119
0.146846
0.0949063
0.108949
0.148819
0.140889
0.18715
0.16226
0.0689879
0.139396
0.138404
0.145553
0.134915
0.138091
0.136537
0.0978257
0.0596836
0.111803
0.150931
0.138511
0.138625
0.167495
0.211674
0.0618697
0.0744533
0.154982
0.159449
0.14453
0.0738717
0.194839
0.204297
0.138314
0.138316
0.138633
0.134866
0.150574
0.000200688
0.142173
0.139658
0.178248
0.131412
0.120181
0.136894
0.138462
0.152156
0.146938
0.141983
0.134869
0.140004
0.136952
0.150236
0.143158
0.143529
0.143224
0.146226
0.130906
0.144001
0.234409
0.201181
0.172775
0.278896
0.169569
0.149514
0.152076
0.170769
0.182862
0.139766
0.275848
0.245934
0.239752
0.294287
0.126759
0.138119
0.140026
0.149954
0.16114
0.182885
0.184434
0.166094
0.18096
0.222391
0.16375
0.216878
0.190989
0.172532
0.149945
0.14908
0.154631
0.194772
0.173612
0.16485
0.0917739
0.0799853
0.155398
0.148139
0.000223441
0.147556
0.144756
0.00016718
0.000136287
0.160352
0.1429
0.140754
0.159202
0.138263
0.138543
0.140728
0.138419
0.138298
0.190588
0.144665
0.13925
0.17071
0.143203
0.141767
0.155068
0.000355637
0.000412114
0.152391
0.150961
0.17678
0.163659
0.140947
0.138809
0.140506
0.21657
0.146494
0.139875
0.142404
0.145681
0.133624
0.141476
0.14317
0.146057
0.145741
0.142616
0.14643
0.153316
0.235753
0.197589
0.197864
0.162171
0.13956
0.146016
0.151429
0.149348
0.161521
0.138905
0.139936
0.139967
0.139404
0.133557
0.144247
0.146283
0.135073
0.17196
0.160023
0.196568
0.199156
0.00638243
0.039817
0.10135
0.1075
0.0368736
0.0349601
0.109972
0.131616
0.0880936
0.0815676
0.126934
0.10649
0.0813894
0.105345
0.0496426
0.0916726
0.000352435
0.086479
0.0740626
0.0711367
0.0745278
0.0917944
0.0933354
0.101389
0.0932813
0.0978592
0.11544
0.111814
0.000338886
0.0415744
0.03919
0.111946
0.108157
0.108589
0.0783125
0.0531224
0.000806589
0.103541
0.109776
0.107746
0.126512
0.126375
0.121894
0.121607
0.123096
0.125156
0.12528
0.0505472
0.0542067
0.0834537
0.0866735
0.0882146
0.10841
0.110126
0.0909225
0.0868533
0.0622509
0.109171
0.108856
0.112032
0.0700731
0.117309
0.0734017
0.0900902
0.0881243
0.0442081
0.127973
0.0562803
0.00508439
0.0908854
0.0916474
0.0565236
0.0603552
0.0529595
0.0816865
0.0856087
0.102839
0.114094
0.111871
0.0998666
0.103969
0.0397362
0.0437636
0.110354
0.108229
0.111053
0.138318
0.0873876
0.0898974
0.135673
0.136255
0.0599464
0.0574357
0.0959855
0.0769309
0.111362
0.11284
0.113057
0.111345
0.0396663
0.0482932
0.0419702
0.0460209
0.044126
0.0438383
0.116265
0.116343
0.0991142
0.0889892
0.128176
0.123931
0.105602
0.107328
0.106187
0.107125
0.0511924
0.0515033
0.108182
0.000272871
0.100719
0.0322411
0.107867
0.0432741
0.0422641
0.0865924
0.0875435
0.0850514
0.132029
0.0591231
0.0545087
0.0581718
0.0547359
0.139321
0.131976
0.0614739
0.0695204
0.067616
0.0617886
0.0717428
0.0380026
0.0379199
0.120604
0.131237
0.110382
0.110383
0.117363
0.113565
0.115107
0.112312
0.108623
0.110468
0.0358973
0.107383
0.103609
0.0950931
0.0930926
0.096085
0.0916343
0.137842
0.0966557
0.0994925
0.100766
0.126612
0.122615
0.130294
0.0457543
0.048764
0.0457177
0.0483318
0.0889941
0.0812305
0.0845723
0.0863081
0.136615
0.0423319
0.052332
0.0410828
0.0377199
0.0436737
0.0433341
0.0406653
0.0809522
0.0688885
0.0856763
0.0819214
0.0801202
0.0880069
0.108378
0.108132
0.0870694
0.0870066
0.0916165
0.0830578
0.0556512
0.0903358
0.0799246
0.0547298
0.0600054
0.0678472
0.0758149
0.0698008
0.0727196
0.0508837
0.0475322
0.139216
0.139939
0.137872
0.136566
0.14032
0.050471
0.053706
0.0476111
0.0789373
0.0896011
0.0838362
0.0842828
0.0864697
0.08936
0.0822016
0.107025
0.103769
0.106938
0.102936
0.0900256
0.0903969
0.0875312
0.0756752
0.150922
0.144069
0.147471
0.148089
0.0629488
0.113173
0.104578
0.103482
0.107033
0.0474975
0.0438944
0.0512916
0.108777
0.0597992
0.0661859
0.0634279
0.0621614
0.137967
0.0415551
0.0390636
0.0386757
0.0414943
0.166152
0.000188538
0.13703
0.194229
0.000448015
0.138572
0.16781
0.139503
0.139347
0.139408
0.169722
0.108973
0.137786
0.13855
0.109276
0.134313
0.132647
0.138273
0.136473
0.117662
0.138261
0.137888
0.115949
0.138467
0.138231
0.00479982
0.139045
0.142416
0.000191477
0.138492
0.138609
0.140581
0.114899
0.139179
0.113879
0.116663
0.135002
0.139174
0.131224
0.133496
0.126401
0.151555
0.128586
0.12421
0.134156
0.130086
0.138899
0.130331
0.127498
0.121738
0.108197
0.106731
0.000190603
0.0063162
0.15656
0.165334
0.138569
0.108667
0.110881
0.139118
0.133494
0.139661
0.139389
0.138337
0.107612
0.106892
0.107342
0.123426
0.139054
0.223798
0.125845
0.112941
0.107934
0.108227
0.13867
0.0137852
0.130608
0.131841
0.100204
0.106178
0.0369706
0.149128
0.140504
0.235159
0.203272
0.138298
0.13857
0.138228
0.0951499
0.158603
0.146683
0.128167
0.126339
0.145586
0.118695
0.12044
0.107847
0.139808
0.127879
0.137576
0.134222
0.159011
0.147993
0.0739705
0.0683942
0.118344
0.119803
0.143087
0.140025
0.000743144
0.149647
0.181871
0.142103
0.140204
0.139818
0.139226
0.139751
0.12717
0.1346
0.139271
0.0547215
0.0544398
0.0581996
0.138913
0.137921
0.138164
0.137721
0.139962
0.143698
0.147954
0.120504
0.0369278
0.139305
0.137956
0.145361
0.153451
0.0488793
0.0443368
0.121727
0.118548
0.160995
0.218881
0.159053
0.177363
0.109027
0.107578
0.110184
0.113937
0.117312
0.0844525
0.090746
0.137547
0.137381
0.137113
0.170107
0.140988
0.138729
0.138515
0.133699
0.1356
0.139206
0.138684
0.132145
0.132587
0.130718
0.139659
0.136399
0.145376
0.148919
0.000473584
0.00537707
0.117987
0.114719
0.123529
0.0621786
0.0579045
0.168043
0.170329
0.15816
0.0100623
0.0120915
0.127679
0.0740885
0.135406
0.0495996
0.124581
0.0305555
0.0749625
0.0596484
0.100954
0.0999862
0.119142
0.0944504
0.095964
0.0931644
0.0939234
0.125075
0.0837247
0.104467
0.0716567
0.0833836
0.115962
0.115437
0.108356
0.108494
0.115309
0.0582036
0.00643213
0.028133
0.0102318
0.00663623
0.0672624
0.100848
0.101156
0.104178
0.0538396
0.101067
0.024759
0.108837
0.0673231
0.125306
0.0675177
0.0657534
0.059008
0.079403
0.0931191
0.0342917
0.0412344
0.114283
0.058792
0.0592526
0.0612665
0.0932872
0.10622
0.0802095
0.105251
0.0972978
0.0444704
0.108833
0.109229
0.116794
0.117071
0.101043
0.100863
0.0513187
0.0974168
0.0967643
0.0281074
0.123794
0.0522643
0.00170118
0.0630828
0.113501
0.0887002
0.00168575
0.00128686
0.118253
0.0897984
0.0309134
0.00529726
0.090151
0.0909211
0.105421
0.0834025
0.0863276
0.0888329
0.114461
0.0693695
0.0363059
0.0381854
0.09809
0.126024
0.126038
0.063021
0.058303
0.0636588
0.0629401
0.101564
0.111646
0.0676386
0.0729649
0.0331668
0.109638
0.0285809
0.0513179
0.0541052
0.101571
0.108077
0.0835843
0.118758
0.0808123
0.0861941
0.122212
0.0947927
0.0931292
0.124656
0.0955709
0.117939
0.123781
0.0781601
0.0776943
0.0758372
0.0967021
0.0984966
0.0934355
0.0195701
0.0713524
0.00193262
0.0532946
0.105019
0.104658
0.0967426
0.093346
0.0700562
0.0830925
0.0679484
0.12206
0.0193102
0.0966697
0.107549
0.118489
0.118408
0.118337
0.0723707
0.0733595
0.111942
0.0815879
0.083579
0.0565223
0.106481
0.127043
0.113329
0.0287782
0.0724992
0.0582648
0.0865801
0.103305
0.106734
0.10666
0.108196
0.0392947
0.0417962
0.113952
0.0620198
0.063002
0.112658
0.109879
0.0736554
0.0573919
0.0563158
0.084958
0.0971375
0.100511
0.0317297
0.12515
0.12679
0.126541
0.105887
0.102747
0.10516
0.102893
0.104768
0.106182
0.106202
0.0318357
0.0304722
0.0299809
0.106479
0.122911
0.119802
0.124875
0.116777
0.0884514
0.0924494
0.112716
0.0985134
0.0917211
0.105718
0.0685762
0.0660626
0.124005
0.0997154
0.0798205
0.127119
0.0850073
0.0820455
0.0695403
0.0756337
0.0616835
0.101159
0.100043
0.0237774
0.0913879
0.0684957
0.0879187
0.0857463
0.097842
0.0940923
0.0889712
0.0904556
0.0659785
0.0891408
0.0917836
0.0871502
0.0876096
0.0882824
0.0990267
0.105868
0.0214777
0.0659136
0.0809832
0.0823413
0.0430368
0.0421317
0.118299
0.0686185
0.10242
0.105707
0.103837
0.126496
0.0483106
0.0928272
0.0841776
0.0306107
0.0763152
0.11308
0.0947591
0.0941707
0.0942338
0.113642
0.104645
0.0425077
0.109658
0.111599
0.088811
0.102023
0.0959886
0.0661194
0.0625338
0.107325
0.0858967
0.065988
0.0432864
0.044902
0.011082
0.0975857
0.0966247
0.100555
0.0221895
0.0884849
0.0874552
0.11743
0.0934004
0.0776364
0.0746516
0.119925
0.0974314
0.064953
0.0412733
0.109067
0.126061
0.111099
0.0803197
0.0735348
0.114908
0.114902
0.115792
0.123074
0.0561382
0.105826
0.101076
0.0224507
0.100667
0.0514214
0.0643697
0.0606972
0.110197
0.116857
0.0519034
0.0504369
0.0664229
0.0121171
0.088282
0.0450867
0.0402958
0.0343208
0.0752819
0.120889
0.0805683
0.0843423
0.0813871
0.064857
0.116742
0.115343
0.112711
0.112558
0.100728
0.0989151
0.0793015
0.0818409
0.0783793
0.0751734
0.072265
0.048292
0.112667
0.112731
0.103957
0.107695
0.0743658
0.0750555
0.0251009
0.0205243
0.0903595
0.0638371
0.0582403
0.115814
0.110051
0.0717915
0.0689344
0.0724923
0.0305805
0.032282
0.0929384
0.105978
0.109409
0.108982
0.0635394
0.0958079
0.0904913
0.101117
0.100486
0.0992214
0.11296
0.105832
0.103129
0.110028
0.0985858
0.0494937
0.0517099
0.0445983
0.0753267
0.10376
0.103174
0.0562867
0.0868389
0.127657
0.127797
0.127587
0.0933639
0.0753857
0.0768688
0.0952546
0.0935215
0.109665
0.109824
0.0582406
0.104369
0.106258
0.104132
0.105948
0.054794
0.0514856
0.118722
0.118264
0.118045
0.118942
0.102187
0.103797
0.101733
0.0896578
0.101946
0.120227
0.0778406
0.0739654
0.00144332
0.116338
0.0721039
0.0692467
0.101471
0.100076
0.102053
0.120522
0.119557
0.120286
0.0392915
0.0745894
0.0723346
0.0757832
0.0791644
0.0789028
0.0775448
0.085681
0.0972694
0.0987742
0.122592
0.02384
0.122281
0.054724
0.093717
0.0922555
0.0787353
0.122224
0.0341999
0.105924
0.105987
0.0971504
0.0637359
0.0610999
0.0657333
0.0846257
0.106425
0.103426
0.0874411
0.0832734
0.0577154
0.0585537
0.0550811
0.0468079
0.121201
0.120793
0.0752673
0.0778596
0.0862159
0.0718982
0.0676423
0.0690413
0.104217
0.10194
0.102383
0.0253548
0.0317989
0.000758834
0.11824
0.1168
0.101712
0.0803277
0.000771809
0.074483
0.0716047
0.0904424
0.0730832
0.0774221
0.0767052
0.0735478
0.116724
0.118254
0.106975
0.109019
0.0821612
0.0803361
0.113442
0.0348045
0.0832623
0.0856349
0.000606856
0.119798
0.119202
0.120265
0.113705
0.0642742
0.0609937
0.0656283
0.0289117
0.0589158
0.0561668
0.11673
0.115961
0.129331
0.0924151
0.0924458
0.0916744
0.0998661
0.0984029
0.0987701
0.0389196
0.117392
0.116486
0.0871208
0.0856595
0.0866793
0.000562231
0.0784449
0.110444
0.10823
0.103358
0.101377
0.10198
0.102837
0.117057
0.116666
0.0584054
0.0518031
0.108308
0.00112818
0.125777
0.125077
0.114329
0.114814
0.114071
0.00122476
0.0925991
0.0873864
0.000436681
0.000708496
0.0042536
0.124638
0.124719
0.124096
0.100707
0.0721758
0.0773794
0.0953715
0.124902
0.0899212
0.0917483
0.0892159
0.115351
0.114925
0.0746333
0.00045398
0.098939
0.11022
0.111033
0.106657
0.0356505
0.0350079
0.0923413
0.0924557
0.0917523
0.0920102
0.0916821
0.094507
0.0946099
0.000549605
0.0534206
0.0334604
0.106588
0.103682
0.0406454
0.0370724
0.0883167
0.088405
0.0664486
0.114917
0.115226
0.113899
0.111046
0.112071
0.0708059
0.0642829
0.104576
0.000461918
0.000346328
0.121296
0.0812619
0.0786932
0.0285052
0.0291145
0.0894828
0.068435
0.0655493
0.0640795
0.106277
0.102607
0.112026
0.11004
0.0433201
0.117891
0.0351119
0.128045
0.12771
0.108797
0.107907
0.0778573
0.0738061
0.000449665
0.000926509
0.104728
0.123348
0.123246
0.000396792
0.125523
0.126178
0.113685
0.105241
0.102911
0.104034
0.123458
0.0895901
0.0936521
0.0941931
0.0951966
0.095185
0.0707729
0.0249643
0.0917277
0.0932479
0.0936778
0.0911727
0.0769268
0.0748194
0.10176
0.112801
0.111249
0.110065
0.124751
0.0933982
0.0950214
0.000996148
0.00253094
0.110605
0.112961
0.112777
0.110425
0.0658246
0.116735
0.121237
0.12162
0.107223
0.0928115
0.0920136
0.0388375
0.0356182
0.0376883
0.0364085
0.117519
0.115618
0.114467
0.115947
0.100187
0.101975
0.100678
0.101422
0.0791246
0.0797528
0.0814746
0.0774703
0.0705659
0.0753569
0.0704547
0.000510837
0.00171881
0.0733665
0.0705538
0.0904383
0.0868295
0.0881711
0.0891018
0.0533962
0.0615467
0.112691
0.114736
0.107343
0.0769655
0.0889829
0.0914275
0.112686
0.111387
0.113418
0.111326
0.120812
0.120563
0.072132
0.0712743
0.0827786
0.0837178
0.0706802
0.0678779
0.0677177
0.0707823
0.0903481
0.0903284
0.0897289
0.0907575
0.0383402
0.0296609
0.0856145
0.0878134
0.0875347
0.0857241
0.0871101
0.109729
0.109612
0.112812
0.00195202
0.0561445
0.0538111
0.0603906
0.0809181
0.0821614
0.0771637
0.0937555
0.0934523
0.0786724
0.0812335
0.103939
0.107579
0.102749
0.0778788
0.0827327
0.0813324
0.0783063
0.113584
0.113924
0.112898
0.114708
0.0887738
0.0857457
0.0891627
0.0717771
0.0745333
0.0723879
0.105027
0.106604
0.106623
0.104897
0.1231
0.122604
0.123314
0.110824
0.108018
0.109227
0.118918
0.0921191
0.0911327
0.0916218
0.0916974
0.110461
0.10974
0.10868
0.11148
0.0701073
0.0779349
0.0807618
0.0783562
0.0823193
0.0786871
0.0207233
0.0209809
0.106912
0.0521124
0.0406828
0.0450871
0.0851009
0.0830487
0.0430141
0.0556217
0.103291
0.100515
0.075092
0.0776361
0.136885
0.137128
0.0416384
0.104622
0.100891
0.104599
0.110073
0.107989
0.0465259
0.0925783
0.0916295
0.0436638
0.0506741
0.110188
0.12174
0.121005
0.121471
0.121333
0.0169394
0.0167116
0.113004
0.111017
0.112609
0.11099
0.0540856
0.0692615
0.0972683
0.0167351
0.106828
0.10449
0.0952311
0.0974124
0.0957658
0.0487646
0.0443559
0.0501375
0.11003
0.107857
0.0813961
0.0777559
0.0792461
0.103049
0.104756
0.104266
0.103473
0.119226
0.120464
0.119964
0.0415228
0.0410402
0.0884023
0.0850879
0.0857046
0.0952784
0.0988957
0.118439
0.118319
0.118835
0.117867
0.099683
0.093165
0.096082
0.0964667
0.0641994
0.0574605
0.0559159
0.10874
0.107105
0.107638
0.108311
0.0814198
0.082266
0.0833772
0.0802963
0.127093
0.127154
0.127335
0.104886
0.104715
0.106564
0.109635
0.110006
0.110577
0.109048
0.0294186
0.0275534
0.0266738
0.0303605
0.0746065
0.0832924
0.0781287
0.077896
0.0988436
0.100842
0.099348
0.0966846
0.094786
0.0824214
0.0792358
0.0806145
0.0810392
0.0318604
0.0273972
0.0802326
0.0773572
0.0785231
0.0789739
0.0829637
0.0847495
0.0804647
0.103884
0.118992
0.0849239
0.0871274
0.0843668
0.0814397
0.082849
0.111278
0.107887
0.136296
0.0737004
0.0736339
0.0712585
0.0887168
0.0844775
0.0871691
0.0859112
0.0848207
0.0865932
0.0840189
0.0921732
0.0925766
0.0913681
0.092352
0.0943189
0.0963036
0.0551223
0.053704
0.0607467
0.0658162
0.0647238
0.0654895
0.0697311
0.0682508
0.0668659
0.0608553
0.0564384
0.0593205
0.0905224
0.0915043
0.0920615
0.0900989
0.0593839
0.0964765
0.0621994
0.0614552
0.0599402
0.120129
0.119712
0.120386
0.119651
0.0900841
0.0919016
0.0922702
0.0898202
0.0943042
0.0929466
0.096417
0.0104653
0.00950288
0.0108034
0.11595
0.116014
0.114648
0.115564
0.109276
0.111693
0.111529
0.127104
0.0779235
0.122689
0.109682
0.0951908
0.0988209
0.0981132
0.0960552
0.120817
0.120275
0.0835938
0.0859266
0.0821124
0.0946371
0.0955038
0.09586
0.0903834
0.0903871
0.0899072
0.0907043
0.0402738
0.0396378
0.0414153
0.0383577
0.0494325
0.0438403
0.0463331
0.0941058
0.0946342
0.0934118
0.121072
0.120411
0.093762
0.0937881
0.0679728
0.0629925
0.0634169
0.0651494
0.0627086
0.0642604
0.0845692
0.0942528
0.0971944
0.096362
0.0950478
0.0878802
0.0947641
0.113908
0.114105
0.114225
0.110439
0.116661
0.117337
0.115831
0.113825
0.1144
0.113533
0.0794565
0.081495
0.0796857
0.0811633
0.0835344
0.0852752
0.108258
0.110157
0.110276
0.113175
0.11358
0.11217
0.0838139
0.0838954
0.0829022
0.0840534
0.0865427
0.0883283
0.08265
0.0138618
0.0166507
0.102284
0.0696197
0.0692653
0.0309064
0.088569
0.087874
0.0911691
0.00101852
0.0171611
0.106679
0.107706
0.108086
0.125008
0.12525
0.107385
0.0313322
0.0782167
0.0778236
0.0790581
0.0768786
0.117676
0.117156
0.119162
0.0902578
0.0870264
0.0887819
0.12106
0.12164
0.0873565
0.084914
0.0855095
0.0868835
0.102707
0.101297
0.103973
0.0921703
0.0917881
0.0929416
0.0911104
0.061505
0.0615402
0.0844285
0.0787554
0.10748
0.0564228
0.0543745
0.054846
0.0558377
0.0503848
0.0438107
0.109213
0.105812
0.108338
0.10621
0.109044
0.121626
0.122168
0.0857176
0.100495
0.100112
0.0995877
0.101206
0.0791904
0.0759885
0.0793863
0.0347237
0.035325
0.113839
0.115579
0.112884
0.102598
0.104042
0.102445
0.10408
0.0706752
0.069827
0.104212
0.104441
0.10642
0.0988586
0.0981839
0.0975898
0.0940208
0.0964394
0.0955153
0.094833
0.0932008
0.0945001
0.0623765
0.0943668
0.0922087
0.0937936
0.0929128
0.119421
0.118243
0.0739607
0.0735437
0.102092
0.103468
0.103468
0.102025
0.120291
0.119354
0.119842
0.119862
0.119453
0.0951182
0.0966052
0.0994185
0.103801
0.102511
0.100153
0.0903122
0.0932568
0.113319
0.107695
0.10614
0.108885
0.108059
0.106555
0.107433
0.107256
0.0323181
0.0873466
0.0843021
0.0484365
0.0426807
0.111259
0.111267
0.112123
0.11116
0.0364624
0.00825664
0.095023
0.0946606
0.0504234
0.0897329
0.088641
0.0804212
0.0970996
0.0997075
0.0747
0.0777612
0.0472437
0.0430306
0.079934
0.114304
0.112667
0.114933
0.125201
0.0915173
0.0880259
0.0902289
0.0951543
0.093307
0.0950782
0.0932764
0.123124
0.124344
0.0805776
0.0745261
0.0752423
0.0765083
0.0731824
0.0729934
0.0739757
0.0715698
0.0754112
0.138545
0.0908016
0.0888599
0.090788
0.0886338
0.0506296
0.0787772
0.0701073
0.0754874
0.0739342
0.0862188
0.0869119
0.0898818
0.0833659
0.137735
0.137916
0.103355
0.10566
0.105566
0.0395216
0.0369604
0.0640468
0.101791
0.0999202
0.100066
0.101557
0.108724
0.109703
0.0196226
0.0602913
0.0676293
0.0622333
0.0665953
0.0625334
0.0925937
0.0909208
0.0935654
0.000377688
0.118147
0.118569
0.117314
0.109432
0.100251
0.123334
0.0931229
0.10749
0.109024
0.10742
0.0942245
0.0948003
0.0970892
0.0993024
0.0973486
0.0978468
0.105806
0.107137
0.104094
0.10914
0.11023
0.108861
0.120465
0.115052
0.113385
0.113738
0.114826
0.0468474
0.0450676
0.0478396
0.0444617
0.000166517
0.0993808
0.10139
0.101187
0.0655568
0.0638986
0.068549
0.0307318
0.00684846
0.0952011
0.110361
0.11158
0.116889
0.117027
0.0722669
0.0739828
0.0709508
0.103326
0.104268
0.102619
0.104861
0.109593
0.108747
0.110184
0.109844
0.109063
0.0817573
0.0806702
0.0971972
0.0961502
0.0962452
0.0950805
0.0957673
0.0953858
0.0559214
0.0607747
0.0574129
0.0698043
0.0703805
0.0685715
0.0715558
0.10999
0.106636
0.106648
0.109312
0.0457968
0.115165
0.113197
0.113669
0.0265384
0.0451843
0.0418398
0.0440569
0.0426241
0.0796985
0.0843251
0.0789756
0.0931662
0.0933911
0.0934722
0.0824884
0.0812543
0.0775985
0.0793649
0.0733177
0.0831562
0.114197
0.113325
0.114154
0.113338
0.112483
0.111307
0.111917
0.111895
0.0888132
0.0891471
0.0893941
0.0884251
0.0157468
0.0141439
0.0183641
0.0242527
0.0511053
0.048625
0.086446
0.0837876
0.0847965
0.0854542
0.0793908
0.10891
0.108497
0.107791
0.109785
0.124212
0.135596
0.134251
0.134534
0.135029
0.114026
0.116214
0.11409
0.0235173
0.0343605
0.035594
0.122428
0.122858
0.12209
0.0985557
0.0987981
0.0995772
0.000150138
0.105579
0.103
0.104495
0.115129
0.119733
0.120608
0.119625
0.0669856
0.0697504
0.06773
0.122885
0.107237
0.108692
0.107333
0.108521
0.000384573
0.108607
0.105779
0.108217
0.105618
0.0689377
0.065783
0.0704883
0.0841498
0.0870411
0.106305
0.103952
0.0374592
0.113141
0.11204
0.11226
0.112912
0.11807
0.10927
0.109603
0.000780004
0.122009
0.121527
0.0870853
0.0879195
0.0869907
0.0879114
0.0560711
0.0509384
0.0549376
0.0527445
0.0834913
0.0856341
0.133325
0.103431
0.105586
0.104604
0.104425
0.0702804
0.0709675
0.0609302
0.0632682
0.0735024
0.0680514
0.0794367
0.0822927
0.0805861
0.0812195
0.00117491
0.0773136
0.0777515
0.0749201
0.0801837
0.115976
0.116242
0.116488
0.0560077
0.0510306
0.0767507
0.076498
0.123943
0.0825595
0.0835341
0.137008
0.126617
0.0848313
0.0839715
0.0851804
0.0834777
0.132792
0.138124
0.0503536
0.0126034
0.0122905
0.0246619
0.0726728
0.00743007
0.0158849
0.0157681
0.0343507
0.105836
0.0815153
0.138578
0.0111365
0.00920865
0.00679848
0.00610636
0.138603
0.138404
0.138425
0.138242
0.0126712
0.104776
0.101158
0.122158
0.117803
0.127221
0.125193
0.0972848
0.0993737
0.0165784
0.0107814
0.00022928
0.0927331
0.00103976
0.0167474
0.000692716
0.0089188
0.0166353
0.130571
0.085119
0.0613842
0.0541863
0.0314553
0.000277252
0.139178
0.00638434
0.00621674
0.00741503
0.101975
0.00588282
0.149041
0.14446
0.00852882
0.137529
0.000167833
0.0368693
0.033316
0.010288
0.0171239
0.0445065
0.12076
0.106638
0.0311727
0.137075
0.137219
0.0701904
0.0317972
0.0344346
0.0913949
0.102463
0.135615
0.136215
0.0492342
0.0469772
0.129343
0.0165509
0.00184469
0.000303439
0.120324
0.118621
0.00130304
0.00641047
0.0481532
0.000664511
0.000291393
0.0053794
0.121243
0.114604
0.117952
0.117434
0.00407512
0.0553891
0.00903986
0.000178082
0.0311061
0.114037
0.117883
0.0706705
0.00908005
0.00474118
0.00443306
0.130405
0.0816276
0.131761
0.129326
0.130654
0.167727
0.0181164
0.103479
0.00553684
0.00717281
0.00112413
0.112702
0.00756562
0.033432
0.0144049
0.0637885
0.0599162
0.0587205
0.0320841
0.0191515
0.0196387
0.0285133
0.0268166
0.0221409
0.0674945
0.0113694
0.0117195
0.00284895
0.0058278
0.059357
0.0280011
0.0225476
0.00522457
0.00599918
0.0383007
0.041323
0.0297725
0.0288932
0.0285861
0.00267183
0.0121629
0.0154343
0.0011514
0.000322783
0.00055478
0.0150058
0.000548655
0.000788264
0.000238819
0.000433839
0.0159955
0.00140402
0.0759635
0.0368553
0.0844904
0.0241428
0.0109723
0.0137802
0.0675558
0.0304634
0.124232
0.0305961
0.110878
0.0299663
0.10926
0.000713533
0.00843462
0.132761
0.00568862
0.099672
0.08824
0.132966
0.132137
0.0540171
0.0181857
0.138371
0.123161
0.124217
0.0195299
0.119025
0.118044
0.131932
0.00871893
0.0139108
0.00418519
0.00760735
0.00838106
0.00760582
0.0123212
0.00875483
0.129735
0.0308759
0.00947839
0.0125426
0.0154062
0.0201704
0.0257289
0.025233
0.0442588
0.110193
0.0120197
0.000135434
0.13757
0.137444
0.0301886
0.0304058
0.0328991
0.0322601
0.0459003
0.0826716
0.046772
0.00989003
0.0017384
0.0207163
0.0710649
0.0651644
0.103852
0.100801
0.00400275
0.00422932
0.134096
0.0780759
0.0322271
0.0666291
0.0667415
0.0133959
0.0903343
0.13796
0.0202212
0.0219548
0.0160687
0.136571
0.13692
0.0575702
0.050678
0.0142514
0.10774
0.107781
0.0506673
0.046011
0.0204692
0.0230119
0.134903
0.136105
0.0666584
0.150413
0.14364
0.138462
0.138316
0.0235891
0.0997386
0.0149855
0.0122307
0.0980699
0.015377
0.0161333
0.0168708
0.0309862
0.104537
0.0156132
0.0174766
0.0307634
0.00641521
0.00658525
0.12848
0.0219808
0.0305493
0.0169362
0.0570651
0.136584
0.136704
0.00312616
0.114854
0.000950714
0.0407192
0.104581
0.106182
0.0833215
0.0312508
0.0306405
0.0189687
0.025053
0.0416054
0.077183
0.0310886
0.228078
0.185045
0.000559181
0.0365478
0.0365776
0.0351204
0.0351934
0.016969
0.00419095
0.0948975
0.037773
0.0785386
0.0812985
0.0611252
0.0249404
0.0113128
0.107642
0.1219
0.12497
0.138009
0.138104
0.0496465
0.0321733
0.0493262
0.0644315
0.0672861
0.0991528
0.0925482
0.107115
0.0697802
0.06043
0.0498756
0.112545
0.0620815
0.0624829
0.0643446
0.0664997
0.0764905
0.0290142
0.10641
0.105156
0.104298
0.13845
0.111171
0.109028
0.130523
0.116003
0.0285025
0.0490408
0.0384101
0.11956
0.118068
0.128246
0.0231487
0.0267571
0.0611239
0.0734207
0.0329034
0.0524223
0.0482537
0.0790082
0.0780432
0.080672
0.076525
0.0249108
0.0276784
0.0270765
0.0416707
0.0582547
0.136584
0.136962
0.136509
0.136921
0.024458
0.0248996
0.115005
0.0542853
0.0528648
0.0335024
0.0319837
0.0316167
0.0338215
0.0348537
0.0347673
0.137641
0.135987
0.135443
0.0967135
0.0865022
0.0840004
0.136001
0.0488489
0.0453856
0.02036
0.10209
0.275423
0.213896
0.239746
0.101167
0.0987102
0.0999789
0.0353693
0.0348166
0.0327822
0.00170281
0.21415
0.0338151
0.0886248
0.0940407
0.0924827
0.0900366
0.00297528
0.135793
0.136344
0.0133752
0.0700042
0.116964
0.13868
0.138711
0.109642
0.111797
0.00025405
0.0725048
0.102838
0.108214
0.106765
0.108083
0.000282683
0.108999
0.115464
0.107679
0.137057
0.136682
0.0638663
0.0693195
0.0726481
0.031007
0.0706088
0.0836158
0.0844213
0.0826286
0.0962419
0.000460816
0.106987
0.105706
0.0158751
0.00279719
0.105761
0.110715
0.121986
0.117996
0.0570437
0.0561593
0.0196638
0.133449
0.0823685
0.0801796
0.0833063
0.0826071
0.196721
0.186496
0.0741183
0.0722938
0.0696963
0.0167474
0.0192336
0.0367126
0.0392645
0.040952
0.0691318
0.0482531
0.0768271
0.0751928
0.0534318
0.116867
0.119668
0.00180574
0.0518234
0.083009
0.0851341
0.0872908
0.0372916
0.0408235
0.108055
0.138476
0.0249894
0.086252
0.0949889
0.0923186
0.122587
0.122141
0.0258993
0.135007
0.0313611
0.00829222
0.0993475
0.101327
0.102116
0.0998845
0.0984975
0.0954917
0.101135
0.0771219
0.0740296
0.0261284
0.0274145
0.0315157
0.0296768
0.0234017
0.0197494
0.0220446
0.0776749
0.0567234
0.0310606
0.00837835
0.106413
0.0659024
0.06527
0.0673605
0.0222482
0.0341313
0.124832
0.123711
0.0819143
0.0831109
0.0820656
0.0428533
0.0891383
0.0128546
0.00108957
0.138864
0.0961406
0.0536897
0.0501234
0.0536477
0.0464335
0.0333281
0.000546329
0.140647
0.0948146
0.0966118
0.025996
0.03012
0.118274
0.0606403
0.0581983
0.0298973
0.10166
0.069104
0.00552392
0.111709
0.109621
0.0977858
0.0986307
0.105937
0.00193733
0.00877117
0.0849358
0.0344108
0.0485082
0.0527721
0.0420338
0.0421972
0.0791721
0.0784955
0.0766011
0.0254653
0.0247649
0.114562
0.111306
0.138676
0.1386
0.091691
0.0898055
0.00826937
0.0505667
0.0472131
0.0267469
0.0260772
0.0671146
0.0649387
0.0190501
0.0471268
0.0422946
0.0796947
0.0812206
0.12128
0.118785
0.0959259
0.138322
0.138193
0.0855216
0.0837611
0.0922266
0.0917146
0.0599202
0.0557056
0.105026
0.0368678
0.0400528
0.0654248
0.0703657
0.0712159
0.0690698
0.0934872
0.0918765
0.0815494
0.0809548
0.0796762
0.114023
0.114857
0.115348
0.0398342
0.0400896
0.126515
0.134573
0.135162
0.027383
0.0162889
0.129429
0.127182
0.0414426
0.0595791
0.0623699
0.0618143
0.111242
0.136299
0.144763
0.0026813
0.049182
0.0501053
0.0787153
0.117506
0.0337468
0.13915
0.140773
0.10842
0.0321815
0.0335786
0.091718
0.0930632
0.0889532
0.0878302
0.0950819
0.0934657
0.0313522
0.0286957
0.09022
0.0899815
0.139099
0.139034
0.139185
0.116152
0.0789951
0.111893
0.0569909
0.0615594
0.0719776
0.0688644
0.0309323
0.0604751
0.0587014
0.106158
0.107722
0.0687399
0.119302
0.0528338
0.0447254
0.138201
0.137992
0.102493
0.113124
0.111587
0.111776
0.112316
0.0326272
0.0361397
0.103171
0.0693939
0.0721832
0.0912539
0.154545
0.166127
0.0904037
0.137766
0.137445
0.0570036
0.0559072
0.13838
0.1086
0.110138
0.109499
0.0489146
0.0497203
0.0597942
0.0639027
0.0589941
0.0560613
0.13416
0.00790967
0.0753928
0.0755158
0.0715593
0.0897859
0.0320497
0.116636
0.114272
0.112151
0.0713354
0.0679343
0.070018
0.121679
0.116901
0.112087
0.121713
0.122895
0.122334
0.133282
0.134531
0.134043
0.0949215
0.0886559
0.077457
0.0805325
0.0392333
0.0355071
0.0405526
0.117173
0.103985
0.109861
0.114783
0.0931248
0.138792
0.130489
0.128353
0.0453214
0.0485256
0.10538
0.108184
0.0901054
0.089096
0.0881554
0.121718
0.124144
0.117736
0.0980367
0.0967372
0.0977508
0.123944
0.124781
0.125832
0.0922645
0.0905695
0.13668
0.137014
0.137188
0.105008
0.101864
0.101054
0.129015
0.130037
0.115635
0.116569
0.0244502
0.104818
0.104373
0.0899388
0.0898814
0.0365262
0.0393507
0.0881673
0.0898803
0.0895226
0.123682
0.201951
0.256288
0.066046
0.00368158
0.0648713
0.000957551
0.0856489
0.0866023
0.0775445
0.0360384
0.13297
0.137849
0.137947
0.122792
0.123814
0.0763611
0.0758615
0.138372
0.128118
0.127921
0.0221742
0.136116
0.137096
0.13748
0.115172
0.114331
0.131671
0.106993
0.10484
0.126767
0.122988
0.131251
0.131414
0.0788173
0.080458
0.0835526
0.0857304
0.0230613
0.0957586
0.100861
0.181073
0.153329
0.0967131
0.0966864
0.118082
0.111773
0.125775
0.125934
0.154229
0.140971
0.141103
0.0778886
0.077236
0.0784489
0.0869912
0.085274
0.0244059
0.134082
0.139745
0.127296
0.10765
0.10751
0.0741569
0.0737868
0.119213
0.119412
0.120069
0.0673668
0.0710635
0.0766357
0.0776371
0.107399
0.106403
0.0356574
0.0385787
0.113455
0.111973
0.0573798
0.0588804
0.0615961
0.107265
0.111875
0.106369
0.0317883
0.10425
0.100605
0.10116
0.0832332
0.0826529
0.0803748
0.0612039
0.0643181
0.150208
0.0375974
0.0403669
0.0899868
0.0897265
0.0711042
0.071237
0.0722357
0.0780778
0.0755286
0.073405
0.0964585
0.0943022
0.0386851
0.0399203
0.0520978
0.0548118
0.0563052
0.0907038
0.0959084
0.038839
0.055601
0.0582167
0.0309683
0.0296771
0.0313166
0.000517371
0.137175
0.136315
0.135377
0.13826
0.138516
0.124344
0.0229325
0.0215866
0.0169034
0.0193898
0.0593822
0.0730068
0.06826
0.0625528
0.0816575
0.0812447
0.0724767
0.06689
0.0643984
0.293437
0.24541
0.0343616
0.139072
0.14381
0.0666733
0.138172
0.0412404
0.0435301
0.226389
0.20585
0.180313
0.137924
0.138115
0.138384
0.138298
0.114226
0.056839
0.133362
0.13283
0.118104
0.128921
0.127638
0.0964741
0.0992325
0.100892
0.0093227
0.0120418
0.0480045
0.0508609
0.0476279
0.0495684
0.0455027
0.0432901
0.0478963
0.0444595
0.0409012
0.0427028
0.100458
0.0988634
0.102005
0.105219
0.100689
0.0119651
0.0154142
0.00912204
0.139204
0.139346
0.139471
0.137556
0.0152768