/*--------------------------------*- C++ -*----------------------------------*\
  =========                 |
  \\      /  F ield         | OpenFOAM: The Open Source CFD Toolbox
   \\    /   O peration     | Website:  https://openfoam.org
    \\  /    A nd           | Version:  6
     \\/     M anipulation  |
\*---------------------------------------------------------------------------*/
FoamFile
{
    version     2.0;
    format      ascii;
    class       volScalarField;
    location    "300";
    object      p;
}
// * * * * * * * * * * * * * * * * * * * * * * * * * * * * * * * * * * * * * //

dimensions      [0 2 -2 0 0 0 0];

internalField   nonuniform List<scalar> 
29874
(
2.85275
0.0903551
0.30045
-2.79182
0.161284
-4.58299
-1.13254
0.832994
2.68551
0.581274
-2.41693
-0.0772557
-2.04894
-0.30192
-2.18584
-4.3705
-2.95856
-3.29287
0.503098
0.109808
3.34183
-1.69105
1.18412
1.03463
3.71608
-0.828596
-2.04351
0.0276875
0.215054
-2.51899
-2.33734
-3.13631
-0.565213
0.635339
2.52098
1.09535
2.65016
-1.91737
0.930712
-1.54761
1.02087
1.17859
1.40434
3.15483
-2.25907
1.20295
0.838715
-0.972454
-3.04595
4.05361
-0.26462
-2.39874
-4.07417
2.68981
-0.307915
-0.795702
-0.499189
1.00388
1.94288
-2.05647
-0.732181
2.13556
1.4814
6.10508
0.251984
0.710596
-0.15977
0.643719
0.232293
0.260533
-2.01597
-1.52768
7.59049
0.503268
1.31405
-2.65938
-0.917813
-2.38949
4.12974
2.06257
-2.81026
-0.464331
1.01598
-1.22406
13.3183
11.1973
0.627414
0.420223
-1.7143
-0.958403
16.9339
1.1429
1.19794
-0.72444
-0.00155243
2.64718
0.208116
13.2777
18.3492
-0.30249
-0.137354
0.584787
0.961252
4.25621
6.01927
18.1912
16.3436
0.0166281
0.494958
0.163992
16.7499
-1.52633
-1.65147
1.0976
1.02227
1.00914
1.3624
1.11182
22.4142
1.60754
1.27271
-2.95928
-0.182222
-0.234258
-0.207024
3.01035
-1.18291
1.18604
1.52618
3.05586
0.780113
2.25886
1.97352
1.11214
0.701032
1.48712
0.9894
-0.184977
-1.28792
3.33312
0.771673
1.33201
-0.7934
5.4977
0.849619
2.79712
-1.32165
2.26076
0.657815
1.9513
-1.99033
-0.712571
-3.17688
-0.248008
-0.6348
1.14056
3.25972
-2.02185
-1.65661
-1.78303
-1.38766
3.89849
6.78106
0.562373
0.343848
0.702863
0.245353
2.78777
3.32338
0.618077
0.371341
0.288195
0.429187
14.6494
15.9108
0.49111
0.225879
19.8747
3.33891
3.3663
19.664
19.7068
-1.16095
2.98037
3.55386
-3.81845
0.526844
0.583724
-0.0267873
0.944566
0.947892
-4.17114
2.72258
2.79704
2.86711
1.67649
1.35001
-0.194418
19.5583
19.6366
-1.24151
-4.7256
3.13444
2.60958
2.02406
2.48715
2.00375
-5.61063
1.55552
1.60581
1.91393
0.369982
4.29422
2.98822
-1.08688
0.931006
0.342264
0.216507
0.278017
0.481152
-0.406243
-3.98273
-0.727453
1.81939
0.84268
0.637745
-0.213819
-0.0356528
-0.298259
0.842976
0.858471
0.807173
-0.0779555
-0.602803
2.74592
2.83949
3.563
-0.646675
0.292858
-0.692849
-1.86644
20.9246
20.3806
5.43828
3.18563
19.7715
20.0347
-8.2362
2.8247
-6.84323
14.787
2.51698
-5.30803
16.648
-0.0861434
19.4288
15.877
21.4891
-7.05575
14.3415
-5.21682
16.3002
15.6846
-4.5125
-4.98037
-7.6107
-7.56653
3.95501
4.18934
22.7635
19.2266
19.624
-3.33323
-4.36361
-0.432798
6.43761
-8.45665
17.5087
5.56125
-1.23755
-2.27406
0.688601
1.16851
2.87089
2.58929
4.22911
1.70325
1.30071
19.1735
18.9224
7.19516
5.29317
5.37277
-6.0702
-6.94006
15.49
15.1681
-6.47579
-4.3953
-4.77249
-3.8655
16.5399
3.96858
17.5117
5.26088
4.87748
18.9613
1.4395
-6.87706
19.4499
-11.1542
-11.0395
-7.22446
-7.90433
-7.69964
15.5325
15.9129
-4.85595
4.45506
4.5834
-5.81895
-12.8029
18.8764
20.1443
5.06866
5.18373
5.37244
-0.357556
15.5685
15.4686
3.27217
2.67784
12.4827
11.7145
-10.671
-6.94843
3.67353
3.05529
3.03249
2.76748
19.825
-7.30488
20.217
19.8699
19.9717
20.0624
2.7234
3.16864
-11.8438
5.19119
2.45301
-2.77963
-5.90203
-5.7354
-5.34234
0.0431421
19.4556
19.1226
7.07379
22.8295
-3.71638
19.4814
-4.80469
20.0537
20.0859
5.14128
5.18546
5.31523
5.55493
18.8849
19.1536
18.2719
18.8468
0.895366
0.29669
18.49
17.3676
17.1802
17.6902
16.9477
20.0094
20.3761
2.3439
2.35469
4.16002
3.83956
-1.70807
2.74683
2.64582
2.24678
-6.20797
-6.81544
20.7691
-4.61822
-4.7737
-11.6092
-11.055
-12.2486
-12.8036
2.63705
-6.84189
-7.12866
-6.28867
3.54656
3.44553
3.14086
20.0494
19.7452
19.637
19.5613
14.4273
15.6539
14.8612
14.563
1.77305
17.0791
16.6682
17.7647
18.2912
19.8238
20.0503
20.3319
15.7405
16.8339
14.6028
15.6314
16.5546
15.1657
-1.85126
-1.23186
-5.80396
-6.50754
-6.63557
-6.78022
11.9649
-4.75854
-4.95821
9.69199
11.602
17.7289
17.0262
16.9071
16.4748
18.3864
18.4411
1.54261
3.60548
3.59544
3.90553
2.94841
18.6577
18.4683
19.3952
13.8633
13.354
13.8991
-7.35496
-6.75746
-7.42584
-7.24461
-5.57444
-4.89695
-6.43531
-6.34439
16.4057
15.9596
16.3378
6.50649
0.663359
0.539828
0.590617
0.543064
5.78852
10.5376
5.26086
5.2781
4.87576
18.0395
18.3356
17.4935
-2.96001
18.53
17.4871
17.7783
17.8361
1.18207
19.9688
20.3152
20.1766
19.588
-1.60956
22.772
-4.19645
-1.95648
19.8499
-0.287594
-2.0245
0.650201
0.710299
0.723016
-2.52839
-1.1409
2.41353
2.12025
-0.320985
5.02289
5.55919
3.76743
4.10297
-1.54788
1.4036
1.51483
9.59358
1.05216
1.13822
18.7835
0.652957
-3.54387
22.0505
-0.0927416
0.987527
-0.857899
9.37859
-1.65362
-1.38888
-1.48974
1.33999
0.663068
-1.87549
-2.00005
-2.00634
-1.89101
2.72111
2.7155
0.0612184
0.113942
-0.213035
4.0724
1.97664
1.94828
-0.340304
-0.424489
22.2064
18.6614
-1.24291
-1.20055
-1.46283
-0.466583
0.057345
2.94041
-3.35858
0.801833
0.885674
0.0307392
-5.07218
-4.84898
-4.15437
8.36522
0.701101
-3.98215
-2.21766
-0.413599
-0.390392
-0.334143
-0.40859
19.511
-2.70602
-2.48078
12.9127
12.1601
20.4021
-3.35002
-0.735445
-6.21941
-3.87844
-0.882599
-0.64528
1.17861
12.6296
-3.86227
-4.43932
6.67773
7.66908
-0.304785
3.40962
3.368
-0.622711
0.698702
0.5391
0.442437
0.597035
-4.21838
-4.74283
16.6512
17.0071
3.05013
2.61587
3.42058
3.75487
22.2565
0.440677
-3.78205
1.85439
2.01955
2.20044
0.650607
0.704811
0.919681
0.958495
0.880746
17.4089
17.902
17.5077
1.77473
1.83462
1.7015
1.99181
-4.80884
-4.34007
-4.2188
-0.508604
19.5488
3.45355
3.3176
2.99327
3.37189
16.8192
17.7889
8.33904
9.30862
2.75792
-0.437332
2.34923
1.91709
-6.97876
-6.73064
11.4111
10.6384
9.87133
15.417
14.819
1.70101
1.79471
1.95234
-2.26214
1.44083
1.13049
3.83154
4.47509
4.1888
-0.524012
-0.6631
5.29384
5.42039
6.04303
0.897953
-2.97776
-2.84448
-2.71203
22.7599
18.8568
-0.147791
-0.0569823
0.199447
17.6933
17.8949
-0.671205
-1.09398
-0.283337
-15.9527
-15.2425
5.85604
-14.3424
2.88393
15.1709
4.39311
20.3908
17.26
6.36669
5.51331
4.74299
-11.8275
4.82696
4.8052
4.3445
4.13143
5.41784
-4.61331
-3.55685
16.6954
13.745
2.42064
2.07312
-13.9857
-14.2065
2.16028
-6.5486
22.0439
21.1338
19.5849
19.7089
5.4813
-0.865842
-0.35261
9.23937
16.946
-1.11144
21.7529
1.38765
17.5756
5.48711
11.126
11.1102
5.19464
-5.58613
-14.545
16.1942
16.2433
2.49591
-10.6995
6.58116
6.99547
1.05615
1.53695
-4.65316
0.598385
1.3588
6.22313
-1.69316
-1.98822
-11.9539
-11.0391
-0.89715
-0.571626
-11.1553
4.71305
4.88297
-10.3418
4.05136
-11.7642
-37.4366
7.43565
0.412794
-3.96077
-34.9007
-17.7128
2.64344
-11.5153
-13.4367
11.8939
8.07174
8.28578
0.865953
16.6577
16.4676
4.78967
1.48489
6.86707
20.6078
20.383
-4.30221
5.09604
5.10562
-13.3588
-13.8651
-8.23379
-7.43063
-3.69129
1.22396
8.84986
9.34321
1.74927
0.740153
-7.83176
5.75531
5.5581
13.7228
12.78
-6.79709
3.06683
-4.055
-3.34761
3.92014
15.4364
15.6606
4.7726
-3.04022
-10.8974
6.42252
-14.6245
-14.8662
-14.9625
12.9655
13.278
-10.1402
-27.5386
-12.9154
14.4173
-19.5602
4.30097
3.77084
-3.69405
-4.69592
7.88522
16.4766
14.5428
3.58599
-22.4856
-1.36517
-1.45278
2.9744
4.97536
5.20275
-7.94641
-7.67895
2.90475
12.2748
5.17057
5.38965
0.675394
5.71782
1.17894
20.7255
17.1198
-3.57878
-6.12478
-3.27153
-2.69758
12.7733
11.4195
-3.49371
-4.19146
0.989199
-9.08384
-8.95391
-13.2428
-13.5061
5.31112
5.13896
5.06141
5.16218
-4.77553
-3.99755
1.63599
6.46416
6.43547
5.82068
0.174178
-0.347075
-11.4208
-11.3279
5.78821
-2.05829
-1.99726
20.191
20.4474
20.2284
-12.8262
5.64123
3.42784
6.38312
4.41489
11.1587
11.6053
-8.68214
-3.25481
4.78784
1.85645
-9.38598
-9.91721
5.33807
-4.87993
-15.0567
3.46272
-3.83861
-4.06902
-13.3211
-13.8159
-20.2433
11.7294
13.628
14.7899
4.96403
-14.9731
4.94926
5.18838
5.39853
6.33376
-6.04646
-6.16197
-4.63481
4.9271
4.86416
5.075
5.12729
5.05245
-1.56834
9.19699
-22.0228
5.41036
5.63246
5.74242
-12.1116
-12.299
3.12358
12.5706
-6.78311
-6.66104
-6.97484
5.20031
15.3877
4.28637
5.1794
-24.9201
9.54131
11.9174
4.1501
4.14215
3.87013
0.200139
-2.50624
-22.2733
-0.939923
-0.242198
-2.9197
-13.395
-13.6418
-4.35213
-19.9868
-1.85082
-14.9471
-11.4207
16.5171
16.2955
22.2175
-13.6863
-13.3619
-13.1082
20.7533
10.7869
10.069
2.26617
-14.0528
-8.32484
-8.8934
3.37832
-1.11773
9.15898
19.6445
-9.04842
3.66628
-1.3192
7.29629
7.34278
1.10789
1.21199
1.46573
-10.537
18.8193
0.587097
0.609167
22.2073
1.67099
-5.74362
6.05355
6.12003
-13.214
10.9047
5.46811
5.45951
14.577
-7.03261
-3.53467
8.372
-10.146
-9.61156
5.57355
4.0253
14.8925
15.0454
15.8068
8.90162
2.08915
1.14561
-0.209244
-0.0105197
-3.99368
-4.49171
-8.01358
-6.89166
-7.49135
12.2533
12.464
14.8543
-0.053518
0.199731
-14.1426
-13.901
-11.0023
-11.5648
-8.52118
-7.7196
-2.09644
-6.25623
-5.77369
2.44342
1.95894
14.9668
15.6219
-9.60699
21.0238
16.3357
15.804
-9.9537
-9.57752
-12.4176
-10.5441
3.53989
4.71922
5.02597
5.09284
4.72524
-7.85832
3.0572
3.03283
2.78637
-4.01948
-5.98796
-6.54991
-6.00657
6.29441
-7.85309
-8.2003
7.97831
16.3355
5.2762
5.82198
5.37463
15.8858
9.02484
9.52109
15.1414
15.3032
-0.995694
-0.436286
5.05589
-0.433904
-0.0528835
-3.0115
-2.93336
15.7517
15.984
-11.7362
-11.3701
-11.4113
-11.2377
-2.85448
-1.83697
-2.29073
4.85687
-2.42975
3.79654
10.0877
-6.20563
17.6568
-10.4206
15.8458
16.1661
3.77965
4.06619
3.85646
3.15283
3.10625
3.57754
20.1503
6.03926
6.06662
6.03745
5.61377
5.44632
5.51015
5.15408
-4.76716
-4.41491
5.27645
21.9007
4.20989
-10.2495
3.81081
12.3889
-2.33802
4.35561
-12.892
-2.17409
-2.13089
-10.2077
8.59894
8.14942
8.60553
5.62902
2.23896
2.35497
5.95998
5.97015
6.25813
6.09056
6.17735
14.6987
4.49745
4.07255
-8.62902
-7.97249
5.15112
-8.05143
-8.50196
-8.01094
-2.71467
-3.32138
-2.48978
19.7282
-10.8501
21.6009
2.58686
2.03861
2.96618
5.19054
20.5974
14.7127
14.8708
4.76385
13.6324
13.2162
12.6395
12.848
2.35245
2.73328
11.9747
12.162
-14.6482
-14.7664
1.88627
-5.0011
-3.47666
-2.71248
21.8201
3.49528
3.14477
3.55779
0.577654
-10.2626
-10.3369
-9.99127
-11.1755
-14.7168
-14.7846
2.48732
2.22401
5.40506
4.46739
4.49027
4.66359
4.66174
4.38858
4.60934
20.5684
2.47348
1.91241
4.99502
5.11861
4.95278
21.9702
17.1736
0.307771
-2.1652
4.1127
4.56624
3.87233
3.98999
2.4197
1.85144
15.0943
15.6261
4.45524
19.7063
5.14159
4.74381
-8.88701
-10.118
-9.75004
19.402
6.56523
6.76414
22.1214
19.8905
19.8264
6.73122
6.55629
6.43258
-1.66662
-5.37732
-4.76151
6.31434
4.35615
14.0583
14.5199
14.7381
2.31681
1.69481
15.0073
20.2144
7.59164
-9.7306
-9.5214
-8.66716
20.5456
20.6263
4.44362
4.28159
4.64435
5.35645
5.22463
5.23617
11.5827
22.1588
6.14222
18.8192
6.60698
6.79795
-8.96621
-9.40784
16.5229
16.2218
6.03637
2.30623
1.95175
1.35453
-0.509214
0.30254
-12.3439
-11.8037
-2.39195
20.1125
22.3249
-11.4703
15.6859
15.1295
-13.4985
-13.2109
12.5025
-8.08957
-8.62141
15.8041
1.70988
1.42856
11.9826
12.0472
-8.72264
-12.2294
20.2103
5.76368
5.82197
-1.91638
-2.12316
-12.6538
-12.5759
22.3631
22.3628
-13.6647
4.54991
4.32314
22.4833
4.74287
4.92813
11.3927
-11.0596
-11.1034
-10.4335
4.76897
5.97644
5.95512
4.78249
4.58975
4.41992
-8.96396
21.7698
5.54378
5.6239
5.73129
5.86859
5.53426
5.62095
2.32275
2.80287
-0.420779
-0.462898
6.46181
4.95065
4.74958
19.608
20.1483
-10.9118
-11.142
-12.1623
-12.2287
11.9886
-11.8051
3.47828
3.60479
-2.39756
14.7129
14.652
20.1069
20.4808
20.1251
20.067
2.23425
11.4203
11.0486
10.9576
-4.16381
-3.64552
-3.04601
-2.66652
14.7116
13.9097
15.4289
16.0985
-9.06889
-9.28245
-9.94356
20.1773
20.1845
16.3916
16.0403
12.0627
11.9849
12.033
12.2862
-16.7854
-6.44846
0.691697
0.656228
-4.35217
-4.54773
6.77723
6.66148
-9.09653
-9.68812
-8.48083
-7.65153
3.82953
3.86224
5.74553
5.82703
5.36097
5.37899
11.761
12.0335
11.3856
11.0116
4.7213
4.66994
4.78279
4.61977
-4.09698
19.9353
5.52309
5.50741
5.30562
5.49432
8.55439
-11.3112
-10.2099
-10.6761
-3.05884
-9.96234
-9.75866
-9.80613
11.3021
10.6419
10.8048
-5.83601
4.20145
-4.41715
-3.17654
-10.7528
-10.2237
-10.1905
13.5565
13.7339
13.9406
-10.6152
-12.8359
-12.4883
-12.9628
-12.3068
-12.6738
-12.0257
-12.8893
12.0225
12.1054
11.3756
-2.63554
-2.09422
-0.728188
-1.22689
4.41621
4.4407
4.47867
2.35835
2.35141
1.95932
3.06213
4.48566
4.49595
4.74524
4.695
-12.3242
-12.2041
-13.083
-12.8691
-9.87421
-7.52523
-6.8419
13.6939
13.5448
12.8726
-6.17262
-6.86033
-3.75781
13.418
-7.4397
-7.72176
-7.07847
-7.4213
18.7848
18.1706
12.8522
12.7695
15.3787
15.0423
2.02242
1.86113
-7.28453
-8.93712
-8.03728
-8.37695
-10.6685
-11.2407
-8.44665
-2.42039
-2.87968
-10.2455
-10.4881
-6.43592
3.59464
3.28942
3.70201
3.63711
-27.6404
-27.4999
-9.75959
-9.36722
-8.87716
-9.33159
-12.4145
5.60128
3.90124
-27.3605
12.8348
12.7765
5.61607
5.38536
5.28717
18.8811
18.9011
18.7465
-8.03669
-7.0872
5.99109
6.01198
5.95395
3.82491
3.52603
3.42505
3.20902
3.15948
3.35209
3.32642
-11.3952
-11.7402
13.7476
13.8211
14.235
0.939578
0.801348
2.36939
2.58991
2.92392
2.28104
-9.96607
-10.496
-9.9407
-9.03873
-6.09221
10.3736
10.1431
-0.867603
-1.51429
-2.08605
-1.48436
16.3201
16.2355
15.8665
16.3236
5.48081
5.38732
5.44584
-2.55703
-1.56052
-0.986785
0.541807
0.717814
0.602755
-0.00592265
14.9483
16.0274
15.506
15.7487
17.4139
-7.86253
-8.86205
-8.13288
11.7819
11.5924
10.9101
15.215
15.5494
-6.22619
-7.10075
-6.76701
-6.60994
-9.54089
-8.53537
6.41751
6.33673
6.22815
6.03247
6.47755
6.85416
6.57526
3.62414
3.47012
5.20374
5.04712
12.0838
12.3516
12.1741
1.1796
0.735628
2.23375
6.46913
6.30765
6.53327
10.737
10.6568
11.1087
-6.37502
-6.82413
-5.24771
-6.17705
4.46085
4.42275
4.58709
-8.98665
-8.1891
-8.84562
12.647
12.313
15.7277
15.5331
15.4378
12.4767
12.1843
12.5417
12.223
13.7338
13.2058
13.1248
5.00011
4.69275
5.05846
5.17774
-10.7509
15.7449
10.7025
11.2705
10.4869
-11.802
-12.1037
-11.0743
-11.0574
-2.52259
-2.32545
-3.11533
-3.44529
15.6917
15.5988
14.8332
21.5415
21.5231
21.6059
2.63177
1.83703
1.52865
1.68466
11.612
6.18621
5.95892
4.54503
-4.32429
-10.4238
1.05948
-13.1609
-13.1423
-12.1799
-11.5988
-11.3945
-11.5423
6.31861
6.33981
6.34768
15.5944
15.4124
15.1931
4.72977
4.75828
4.69833
4.45477
20.4674
20.5599
20.2491
20.5265
-8.7344
-8.65073
-8.00452
4.58492
4.7198
4.60424
4.35081
3.60514
4.11106
4.10509
-10.2889
-10.8965
-10.1958
-8.85836
-8.8282
-9.04723
7.78981
12.5275
11.9922
11.6078
11.9131
-5.6426
-5.65821
2.21368
1.85214
3.02514
-0.868177
-11.0768
-10.6275
-10.5083
0.564591
1.45558
0.144591
-8.30812
-7.93007
-7.35705
-7.30099
-12.886
-13.0312
-10.9178
-10.5943
-10.0795
0.192419
-0.0404436
-0.889441
5.23592
5.21567
5.2305
-10.669
-9.9455
-10.5315
-10.8377
-23.8664
-23.1347
-0.269886
-5.94177
17.1319
20.0712
6.47084
6.32997
6.33976
14.1311
-28.12
0.163572
0.566937
0.130269
6.67502
6.58997
0.464113
19.2619
5.72401
5.65053
5.78081
5.86125
2.46429
2.03389
2.12098
-5.605
-6.64611
-6.08569
3.30306
3.77501
5.78984
5.90422
5.69416
5.7479
0.303013
0.182613
0.337897
4.51296
4.65733
4.91599
4.986
-10.4347
-9.64566
-14.2222
-13.4244
1.5981
5.58079
5.31236
5.5346
5.4658
-9.68138
-9.40232
-10.7722
-11.0915
-11.7124
-12.004
0.489044
-11.182
-11.316
7.25646
3.18362
3.74549
3.92626
3.50036
15.4896
15.8304
16.0523
-8.55398
-8.0894
-11.404
-12.1451
-12.4409
-3.31441
-2.82375
-1.94376
-1.4095
6.84918
6.54635
-7.51757
-7.93902
-6.70586
4.25026
4.20951
4.06003
16.2031
15.6353
15.2333
15.5948
14.8527
15.2502
6.44352
-1.25589
-1.74707
-2.44905
-2.42387
-2.28581
-2.30201
16.0206
16.1294
-4.1763
-3.12667
-2.60456
-2.57942
3.71873
3.20102
3.53758
3.67369
-2.20056
3.77872
3.79258
-10.7749
-10.9597
-11.1089
-11.4075
-13.0461
-13.4275
0.51326
3.39113
3.86618
3.67409
-1.48699
-2.0581
-2.20959
-2.21353
20.9154
16.1115
16.5808
-11.375
-12.0472
-8.21999
-8.17981
-7.82113
-6.89751
-23.4988
-6.6818
4.39117
4.1991
-19.2111
4.80586
4.92201
-8.3612
6.37362
6.13061
7.17168
7.15005
19.3035
19.5742
5.28157
-10.5422
-9.80356
-10.1655
4.46828
-4.8633
-5.26924
-5.27528
-2.30483
-2.90509
-1.42323
-1.63369
3.0204
2.76308
16.6804
-8.63085
-8.20649
-7.54707
-8.21088
15.2788
14.9353
16.2313
16.3653
3.09159
5.44899
5.56967
5.4244
5.75004
19.3827
-6.69724
-6.58678
-6.22288
-5.38179
-8.83157
-9.71828
-10.4768
-10.5007
1.51682
1.44874
12.2774
12.1911
12.6962
-8.78956
-8.93139
-5.92373
-3.6206
-3.94359
-2.68681
-2.48119
-1.08253
-1.6988
20.3489
14.2577
-8.92477
-8.31821
-8.34617
-9.25464
15.6731
15.6916
15.7274
16.1966
2.63148
2.81104
2.52814
0.621883
0.54512
3.99774
-5.99223
-1.83092
-0.482284
-0.822267
4.22256
4.30312
-3.5701
-3.01275
-4.16145
-9.31436
-14.3921
-14.0545
-14.8816
-1.59049
-0.491515
-1.39476
3.70123
3.57512
3.96327
3.13656
3.5196
19.3325
19.7204
19.6982
19.9839
21.5794
-2.89947
-2.30486
-3.10161
6.70238
7.01927
6.92461
21.0732
21.9328
6.9435
-12.5333
-12.7511
2.45715
2.58006
-15.0796
-15.5736
-15.1973
4.1353
4.42809
4.91211
4.53404
1.48642
-1.37214
-1.10203
-0.329847
-0.0485196
5.51287
5.54269
11.8913
12.1339
4.20176
4.25213
3.895
4.17212
-8.30587
-7.67284
-8.71655
-9.46884
-9.18633
-9.01703
-8.37147
-7.46277
-7.06577
-8.86302
-8.30471
-8.74643
-13.1075
-13.5213
-12.7422
18.5847
19.6573
19.7773
19.0995
19.4544
-12.039
-11.7908
-11.6509
4.26125
4.35785
4.20395
5.27864
5.28874
-3.91491
-4.36511
-4.59795
-4.92055
0.552686
-0.0315577
1.57227
1.26594
1.16708
0.654623
0.948037
1.15521
4.86203
4.80543
4.65504
4.96283
-7.47123
-7.24043
-7.58341
-14.521
16.1587
16.4096
-3.14523
-3.58943
-3.99949
-3.60643
-8.32834
1.64003
0.968694
1.61842
1.54826
5.49268
4.42189
5.13128
4.75755
4.29578
-11.7676
-10.9778
-10.6187
-10.7112
19.0969
19.1257
3.99945
4.09275
3.68958
4.16235
4.14524
4.23197
22.8399
-9.39414
-8.97415
-9.65227
1.19297
-11.7392
-12.1271
-12.3949
15.6631
15.7224
15.336
-11.4852
-2.02455
-1.40054
-0.534863
-0.237519
18.2035
-8.30755
-7.84385
-7.06162
-8.39428
7.46604
7.43751
7.37787
14.4532
14.7371
-12.4825
-12.5093
20.5147
0.300577
-0.568045
0.533023
1.16431
-4.73544
-5.82444
-5.9229
8.22915
0.879397
0.874201
4.86523
4.85159
5.03409
4.9317
18.5913
19.0695
18.8798
19.3146
16.3951
14.8132
-6.5477
-2.8817
-2.2582
-2.60848
-2.74308
13.444
13.7477
11.5481
11.0819
-7.93315
-8.18937
-4.21647
-3.86101
-4.60864
-4.70683
9.71832
-9.45364
-9.81982
-10.272
-10.7912
1.56588
2.4495
2.52004
-13.438
-13.0143
10.3568
10.2512
4.18085
14.4638
14.6842
0.810977
5.26147
5.53131
5.46048
5.45839
5.58351
-4.8583
0.367246
-17.2913
22.4579
22.4769
14.8492
-18.7581
22.36
22.525
22.4951
-23.833
-0.468995
-16.1419
0.108875
22.3596
21.4187
21.7636
21.9468
-1.36863
0.148503
0.174
0.226785
22.6115
-3.75445
-3.37177
5.15721
5.88935
-3.50013
-3.87188
-0.835155
-0.810972
15.0853
22.5724
19.8482
-0.650964
17.9783
21.7204
21.6512
19.5131
19.7078
6.31715
5.1516
-16.9046
17.3453
17.235
19.9761
0.533146
22.2671
22.2625
22.2856
-1.81752
22.1352
-3.61661
-3.94133
22.0772
-3.57354
21.9525
-2.39659
-2.65022
20.8202
14.5099
19.1641
1.59851
-3.26782
20.6413
1.16648
0.96025
-18.2266
17.3813
18.3226
0.854061
-0.780771
0.880049
1.06212
-20.5792
-21.08
6.7996
-23.097
22.6242
22.6826
1.05597
0.778319
19.8189
18.583
-21.5442
20.7853
21.9123
17.3624
9.0563
10.6312
9.89805
-5.62196
17.0081
5.26791
22.6611
22.853
20.876
7.18351
6.58842
18.1845
22.6593
19.369
19.4533
1.33438
-3.76914
5.57731
6.51367
5.92538
-3.10323
15.1425
-1.38787
22.7279
22.6884
22.7088
5.62032
14.7189
20.9424
15.2354
17.5152
17.3913
17.2041
20.9382
21.9752
21.9205
21.6002
21.9053
21.7886
17.3342
22.5293
22.5298
18.9039
18.1286
18.7333
21.7718
22.1807
21.8097
21.773
8.53132
8.65632
21.3917
21.6154
21.7732
22.7158
-29.6037
22.2678
15.5877
22.8272
22.8457
21.7966
19.5231
19.5135
19.9155
19.8931
20.9001
20.2235
2.41182
-22.1358
-14.9824
21.6618
-24.4152
-23.6472
-12.9068
20.9005
4.0266
18.7526
-0.58351
21.055
3.7261
18.817
22.5695
1.74823
22.7498
0.019492
-0.295175
2.19562
2.49232
17.5903
22.4322
-2.18895
1.41617
1.68098
18.9769
-13.2342
-13.6514
2.93328
22.2514
19.5156
22.7853
22.6756
22.6624
22.6313
22.519
22.021
3.76762
21.2065
22.017
21.9821
19.4502
19.3466
21.5196
21.5377
3.92262
9.92989
22.6318
22.7535
1.62498
1.66927
21.2495
21.1521
19.7511
19.7815
17.7906
5.26217
-7.77738
14.5823
15.7225
19.1982
-3.20239
-3.33669
-1.01482
-0.212644
19.3773
19.1735
2.17425
-13.9251
19.2923
16.9439
16.495
21.8514
-0.627466
0.390501
15.0117
15.2353
18.4363
-2.34429
-2.19472
17.0723
17.1309
21.6553
-3.72268
-4.17349
16.7028
17.0106
18.9224
18.9788
2.27294
1.93559
5.14408
-3.05732
-3.47442
0.561183
0.512483
20.5751
-0.956556
21.4397
17.8654
-2.94408
21.1642
18.223
18.3703
-24.777
-0.762699
20.4022
20.5593
19.6723
17.8679
17.9347
6.85582
19.7756
21.1451
19.7109
5.00275
2.3497
2.227
19.8468
3.10516
18.4485
-22.1415
-2.93061
-2.45696
0.822412
21.0354
21.0884
19.7964
-26.0376
18.7745
16.8618
20.7311
-2.88546
-2.76007
17.1179
20.6049
20.6929
20.7454
20.7869
-22.6736
22.4587
-5.81311
20.6233
16.732
16.711
15.7026
21.6256
18.3212
-1.31473
6.28553
5.7494
0.231961
0.30364
-18.0952
20.9899
-18.0939
17.5153
17.5591
6.40993
7.16392
6.37662
-5.22527
-5.33153
-18.1758
-0.246998
17.6653
6.22307
6.24132
6.26371
17.2931
21.1351
-2.43546
-3.0226
-0.639173
-1.61342
0.883084
0.284838
2.14271
-2.09348
18.5895
-14.0012
-11.7213
1.95743
1.54751
2.78764
19.806
19.7091
5.113
-14.3577
20.8478
17.044
17.4418
15.0153
14.4185
14.4839
-14.6982
22.1511
21.4104
21.4325
17.8579
18.6779
1.86912
1.77231
2.17963
1.90061
22.1358
22.0661
-1.7508
18.753
18.743
18.6339
18.5546
18.1602
19.6196
19.5357
19.2663
1.14826
1.34017
1.51208
6.73977
5.17046
1.28558
3.31956
-10.0739
-9.86271
22.2849
7.94332
-4.48486
-3.40537
-3.87863
-13.311
-12.48
4.73876
18.2534
17.791
17.8029
22.6867
0.397737
19.4214
-13.5563
-13.4817
-13.7755
-13.4017
22.3643
3.01213
2.75541
22.5006
16.4379
-4.16261
0.785149
0.882433
-0.599412
-0.464885
22.7739
16.7776
-5.80943
-4.95595
-5.44684
-6.2465
22.5113
-1.63412
-1.82122
-1.37147
0.93397
0.92545
-4.8568
17.6381
17.5298
1.00561
17.9489
-8.0399
-7.75358
-8.06442
-0.0105017
21.3814
-0.838185
-0.572976
22.0363
19.8224
1.07613
0.895457
6.82386
7.99367
12.4064
12.1977
22.0165
-6.56888
16.7413
16.7974
16.4821
16.7065
1.00133
-0.915143
-4.48088
-4.68232
-5.11795
22.2633
22.3075
-9.40757
-9.58307
-9.42951
-14.5426
-12.834
-13.3564
-13.8165
11.8119
-3.99691
-3.82651
22.2183
9.78592
15.1709
15.2843
14.7591
17.136
17.2743
1.26616
-2.00113
21.7592
-5.1984
-5.07861
-5.54065
2.30217
1.69552
21.575
0.998539
20.4745
21.2881
-3.8889
-3.99922
-3.37316
-9.17947
-8.58766
13.9959
13.308
17.4766
17.1501
16.6879
17.2329
17.1078
17.6472
18.1777
18.014
17.8253
17.1908
11.6382
18.722
20.0452
9.64642
-10.3085
-10.5676
-10.4394
22.096
18.9491
4.12978
3.91739
5.28263
5.25973
5.30499
18.8585
-11.5537
-0.955902
20.0912
0.16115
-4.9367
16.1934
16.2273
16.1237
5.26372
20.9699
22.8373
-5.45395
-3.69898
-0.607432
18.0342
18.1317
3.03631
-11.1737
-11.3334
19.6636
-5.52867
-4.05207
19.2998
-1.14783
-1.11483
5.14544
5.27441
-0.744095
14.5615
-24.8138
17.048
19.5167
19.188
18.7831
6.32284
6.05456
17.4219
17.419
16.8743
21.9965
21.9759
0.137357
-0.481231
0.987318
1.0166
6.18683
6.12477
22.6464
10.8209
10.7634
21.8546
21.8499
6.46974
6.46344
-9.41106
-5.22136
-5.139
-0.629186
-0.466254
0.31
0.16008
11.3116
0.93416
0.94994
-13.5092
-13.3822
16.0677
16.0539
-9.36622
-8.98456
0.0828574
-12.8402
-12.2707
14.1884
14.3551
14.2207
13.844
-6.27743
-6.57872
5.33317
5.38163
5.42031
0.751234
1.2972
1.52297
20.3285
20.3766
2.0128
1.90678
1.75746
20.984
20.1403
5.69319
6.62534
19.9569
11.3838
12.1548
11.9257
-0.496752
-5.66319
-4.74581
19.7461
15.8006
15.5343
-9.56178
1.17768
20.9527
-1.16767
-1.07384
-2.83193
20.4277
20.6005
6.84935
6.87643
7.17235
7.20047
5.09013
5.04411
-4.97779
-4.7235
-0.554422
-0.679721
0.75365
0.729105
0.749256
5.64177
-3.60754
-1.1911
15.5481
15.7976
14.3123
15.3028
17.7095
14.9164
14.79
4.33195
4.12771
17.0085
-2.08719
-7.57366
18.671
1.19672
1.27393
7.35397
0.0217909
-1.15108
-0.415293
-0.25327
16.638
16.792
-0.91569
-5.61072
-5.16945
16.3071
2.48331
1.87982
-1.57955
0.76802
0.830665
16.5072
-7.30666
0.572931
-2.21699
-1.09324
-0.781324
12.5918
12.6255
18.3433
17.8066
14.0028
14.3275
4.33669
19.9185
13.6158
13.7964
13.5551
-6.79372
20.7863
-3.76312
-3.62153
-5.6908
6.15865
6.26109
6.32013
3.93979
-4.54932
-5.11179
3.66988
3.99399
3.85985
1.88528
1.58478
1.56968
-0.154295
-0.377211
14.2013
14.3044
19.344
19.4831
19.3418
0.465202
0.286188
0.73449
0.842374
-14.406
-0.373314
4.53634
5.42679
-9.00666
-9.04486
-9.85743
-10.1118
5.00926
4.96578
5.00717
7.89284
7.20519
8.44634
-0.726525
-0.556221
-0.264402
2.11091
2.39305
2.10478
15.0177
15.9354
2.42829
2.29278
2.05817
-12.2223
-11.8335
-12.7351
2.00562
1.8923
-10.9089
-11.1589
-9.54467
-7.06188
-6.88737
16.4416
16.184
-13.1124
-12.7914
16.2852
15.9451
15.9946
4.0367
-2.39735
0.166232
15.667
22.1261
5.64069
18.949
5.07298
5.06713
-8.75412
19.5321
2.90547
1.4167
1.31609
3.63998
3.5127
15.8507
16.0047
0.792528
5.30139
5.29059
-9.05026
3.97401
3.71163
3.48856
2.31576
1.8952
5.68425
4.6857
4.7251
4.18467
4.39848
1.45541
1.73097
16.9121
16.9459
6.09548
6.13106
-26.5583
6.03885
5.80168
-3.63267
-4.62588
4.93105
4.74485
4.19605
4.35155
4.73389
4.68558
-2.09788
-2.2683
-2.40187
16.9692
17.0957
17.3127
15.5296
15.7227
20.2764
-1.43297
-1.34411
7.39448
-3.33943
-3.65123
5.53462
5.61455
-2.61715
-2.48476
-2.73868
-11.348
-11.8531
5.55792
5.48836
-0.421442
-0.184788
16.526
15.7401
-10.6648
-10.4729
-12.0374
-12.9384
-13.1251
-6.02527
-5.72175
-6.82475
19.9176
-4.24579
-4.31084
-4.35447
16.8829
17.0226
17.3762
9.27549
9.0611
-0.682535
18.7172
18.7046
14.8846
14.7916
5.63831
5.55618
5.58169
6.93693
6.73154
6.92332
15.2464
15.3029
20.4072
20.2305
14.0048
13.629
13.9867
-3.98517
-3.89506
-10.6795
-11.536
-11.3657
19.01
18.9552
19.2552
19.9731
3.62305
4.02156
4.49103
-0.0803395
-0.0357202
4.27281
16.6464
17.1795
17.014
17.4918
16.422
15.6036
16.3093
16.8966
5.29161
5.32212
-7.398
-6.95715
-7.77902
-3.01153
-2.72874
-22.5868
-1.79736
-2.00547
-13.193
-1.41384
19.33
19.3391
-3.38472
-2.99792
-2.94378
1.36034
1.28603
1.139
1.16441
0.220885
18.041
2.31761
2.72528
-0.219587
-0.128495
-0.239135
-9.79768
-8.72092
-8.03289
19.9124
19.8381
-12.1242
-11.7166
6.1857
6.53459
19.7556
19.8506
19.2862
19.7855
5.32762
5.34718
-4.22642
-4.59536
-0.266623
-0.255816
-0.57393
16.3933
16.34
15.1276
0.855724
0.79722
0.823857
-2.34355
-7.89917
-8.16101
-5.42643
1.27693
1.1747
1.6348
1.27215
0.96195
0.881801
0.806898
4.59109
-0.631328
-0.405085
19.0317
5.44213
5.16137
18.8696
18.4705
-11.5449
20.3011
0.00715745
-12.5596
-21.8234
-6.58919
-9.45921
6.22793
3.21286
-1.43215
3.95152
-6.41371
5.28997
5.91737
4.84638
-9.15207
8.48779
5.05596
-9.94206
3.38149
5.5875
4.86758
-7.39878
6.14632
9.76965
5.94199
-8.53386
-7.96896
10.5775
-9.50993
9.23284
5.9584
4.38439
1.18018
-6.23617
6.07196
5.85112
4.90577
2.43615
2.52554
15.2499
7.49857
0.601135
0.0197362
0.483877
-14.9453
10.3757
11.1553
10.7039
7.76091
8.04879
2.592
4.36355
4.32324
9.51297
-11.713
-12.0138
-4.33247
6.15714
-13.4223
4.89553
5.76984
4.62189
1.39392
7.19968
5.22083
3.91708
-13.3446
10.9281
12.1534
-30.4765
5.92427
0.116831
1.78031
7.65116
5.71298
-21.8184
19.9792
20.3507
-11.1319
-10.2884
5.96174
3.225
3.48463
-4.54473
6.16784
5.5541
4.99933
9.99559
7.71517
7.49922
-2.2524
-2.5782
7.98487
7.7091
8.37813
-15.0511
10.1411
10.1858
-5.32281
-5.4023
3.24232
4.41151
6.13524
6.34685
-7.77093
-8.6108
9.02471
9.94102
9.26049
6.72348
0.708066
1.47788
-10.5579
-11.1487
0.88292
1.51961
-11.3941
-5.07923
-5.85023
6.42485
6.40376
-15.3866
8.80298
7.93486
8.19253
5.68906
5.90029
5.18945
-10.4829
8.82447
7.97393
5.80304
4.59977
-15.5066
7.73922
-12.4883
5.04416
14.8517
1.50419
4.75968
9.22063
6.5372
-0.958514
-0.332522
-12.169
0.51773
6.6653
2.36157
1.65194
4.80475
4.24427
0.57547
-0.153284
6.74227
6.92181
6.86167
5.32167
13.7701
-1.12143
10.8374
7.2071
7.84691
2.30575
1.79153
14.0352
14.1362
2.26512
-15.9708
0.947657
1.48541
-13.9821
-14.1794
7.75389
7.43341
-5.60004
-6.04483
-7.14599
8.12276
8.37713
7.28642
-31.0916
7.42222
8.44557
8.54636
-8.77224
0.329343
8.60566
-11.5803
2.56673
-13.9894
-5.33522
-3.97832
0.751176
0.421588
-10.7733
-0.873354
3.83839
4.87218
2.36214
1.73204
2.65433
8.50325
9.55179
9.65115
14.8171
-0.376347
-0.883488
-7.55551
8.26919
5.06917
-7.80825
6.25321
6.42143
6.6203
6.79856
7.23446
9.76439
5.53448
5.60013
1.85592
2.08965
9.57985
8.76865
2.84617
3.48267
-3.48361
10.7769
10.3025
-9.30147
7.52432
7.49908
7.46862
5.02437
5.01987
4.99876
-15.0303
-0.968563
5.38061
2.56429
3.25441
1.81214
5.02994
5.13786
8.44558
8.54358
4.84285
-13.5134
10.4412
-21.3359
1.56756
2.33307
9.35267
9.27361
9.16582
8.67487
-10.2671
5.49002
-5.40286
-5.29735
6.95569
7.74066
3.4797
0.925533
1.42542
1.7091
13.4078
14.2209
6.7878
7.03313
9.51831
9.95365
10.2656
10.3053
4.4806
3.87113
-10.6992
-10.6866
0.955848
0.811672
0.0104028
-0.016391
19.9768
19.9412
20.1802
7.02882
6.78582
6.35431
5.30691
5.11657
6.05948
5.60706
6.18864
0.155745
-0.363564
14.1588
13.1817
5.70053
5.3222
7.2303
7.57086
-13.5781
15.5158
15.5863
0.641805
-0.313336
7.20022
7.23448
1.27009
1.2834
2.63314
3.12995
6.97736
5.71049
5.44729
-6.04736
-6.44581
-14.9763
1.77262
1.45085
2.68049
3.28305
8.80365
-6.49737
-7.502
-6.6233
-2.54187
0.781713
1.50625
14.1452
14.9229
2.93568
2.42191
8.14395
8.13353
-3.77828
-3.96199
6.75541
6.97699
0.133791
0.501949
6.73454
6.9997
7.32762
7.16407
7.26101
7.19212
-0.0935304
-2.13453
10.3823
10.1576
-11.1315
-10.4597
20.7527
7.69027
6.53929
6.7876
-5.99595
-6.72
4.81927
4.90218
-5.09792
5.37882
5.33095
7.37823
6.94494
9.56371
9.62419
4.16037
-14.7331
-16.0991
3.74673
5.45727
6.37635
10.5289
-0.289926
3.98739
3.5771
8.54765
9.15763
7.2888
8.3385
7.96379
8.99666
8.53476
-15.0103
-1.05335
7.20735
7.6673
7.45229
7.81922
4.68392
4.68356
4.77461
4.80236
3.02353
4.02792
3.40445
6.69287
3.74071
3.55227
3.77936
-12.2035
-12.3222
-12.4671
-0.941724
8.99978
4.8628
1.25183
1.43183
0.574709
-0.0560685
-12.4824
14.8578