/*--------------------------------*- C++ -*----------------------------------*\
  =========                 |
  \\      /  F ield         | OpenFOAM: The Open Source CFD Toolbox
   \\    /   O peration     | Website:  https://openfoam.org
    \\  /    A nd           | Version:  6
     \\/     M anipulation  |
\*---------------------------------------------------------------------------*/
FoamFile
{
    version     2.0;
    format      ascii;
    class       surfaceScalarField;
    location    "300";
    object      phi;
}
// * * * * * * * * * * * * * * * * * * * * * * * * * * * * * * * * * * * * * //

dimensions      [0 3 -1 0 0 0 0];

internalField   nonuniform List<scalar> 
44596
(
1.53483
-2.16184
0.626991
1.53483
1.44601
-1.44601
1.93643
-0.490422
-0.0947858
-2.143
2.09595
-0.56111
1.31874
-1.31874
0.215716
1.817
-2.21205
0.766037
-0.267141
2.30047
-0.797971
-1.2032
0.797971
1.29798
-0.56444
-1.35185
0.56444
0.754297
-0.597553
-0.825696
0.825692
-1.17065
1.38636
1.19381
0.639653
-1.83346
0.0416823
1.50308
-1.54476
1.4288
-1.42878
-0.149669
-1.673
1.82267
1.55284
-0.0854624
-1.46739
1.12861
-1.1286
-1.1071
1.1071
1.12645
-1.12646
0.233138
1.24718
-1.48031
1.3621
-1.36211
1.47489
0.0779337
-1.32181
1.32183
0.265198
1.35948
-1.62468
-1.5909
1.59085
0.60569
0.58205
-1.18775
1.94735
-0.518534
-1.26456
-0.2151
1.47967
-1.43885
1.43886
0.706898
1.29291
-0.792876
1.49977
1.47275
-1.76692
0.294173
-1.62389
1.62389
1.05344
-0.820292
1.25407
-1.42771
0.173643
0.961775
-0.961786
1.20006
-1.34974
-2.31153
0.835377
-0.835366
1.01458
-1.10004
1.84996
-1.9354
-1.59329
-0.615931
-0.79262
-0.800664
-0.89688
0.896877
-1.03955
1.08123
1.9781
0.0630707
1.48809
-1.55116
-1.53582
0.135796
1.40002
-1.55116
-0.462297
0.0104934
-1.44929
0.117067
0.214735
0.259323
-1.81049
-1.5076
1.81049
0.531214
-1.21349
2.00611
-1.44926
-0.950562
-0.477135
-1.54861
1.5486
0.884982
-0.377988
-0.507017
-0.814155
0.412726
0.401428
0.701734
-0.116308
-0.585419
-0.00289102
-0.0951195
0.0980111
-0.0600386
-0.0678359
0.127874
0.0631271
1.43995
0.853093
-0.789964
-0.00574406
-1.46164
-1.2112
1.20545
-0.0409438
-0.00436995
0.0453134
0.121584
1.07224
-0.79529
0.55317
0.242118
-1.66308
-0.00991131
-0.354369
0.929759
-0.575393
0.415593
0.602187
-1.01778
0.0434235
-0.882532
0.839119
0.00734856
0.0718311
-0.079179
-0.0376839
0.00985058
0.0278325
0.0961694
-1.00135
0.905233
0.806164
0.633787
0.711076
-0.606934
-0.104144
1.24709
-0.144876
-1.10221
-0.162539
-1.10295
1.26549
1.5441
-1.70667
-0.0235989
-0.0140848
0.00635713
-0.0473006
-0.93902
-0.72405
-0.0415015
-0.897511
-1.07842
-0.00525842
0.033597
-0.0283387
-1.30961
-0.152041
-0.438221
-0.8714
0.00832736
-0.803617
-0.805824
-0.68203
-0.618861
-0.32407
0.942953
-1.20659
0.991501
3.22348e-05
-3.27648e-05
-1.10241
1.25704
-0.154622
0.256267
0.903466
-1.15973
0.811268
0.0732592
-0.884559
0.0202957
0.909474
0.905295
0.899568
-0.488457
0.904046
-0.887463
-0.323754
-1.1324
-0.310463
1.44288
-1.20285
0.263405
0.939437
0.542842
-0.866227
0.323395
1.05659
0.94331
-0.754894
0.761601
-0.00668869
-0.890181
1.06384
0.84997
-0.210315
0.252439
-1.18971
0.937274
-0.997241
-1.03559
-0.278562
0.9803
-0.896933
-1.4146
0.938434
0.307504
-1.24594
-0.010279
-1.41849
1.14268
-0.205397
1.21976
0.758337
1.07635
0.923584
-0.635425
-1.29998
1.07365
0.173533
-1.09989
-0.857535
-1.84132
0.741439
-1.63674
-0.196719
1.16835
-0.742913
-0.425433
-0.100015
0.803942
-0.703926
-0.953421
0.0820199
0.885953
0.117321
-1.06786
-1.33193
0.419002
-0.918501
0.499514
0.826933
-0.612194
-1.53069
-0.81318
0.336046
0.355169
0.716101
-0.782153
0.066061
0.814593
-0.69752
0.0494391
-0.0420902
0.0411718
-0.0464302
-0.5325
1.03201
-1.23513
0.702635
-0.000665659
0.000664502
0.873153
-0.88876
0.0156093
0.130245
0.00040734
-0.000409772
0.000406535
-1.09542
1.0954
0.867383
0.811882
-0.68163
0.752321
-1.24425
0.491914
-0.718437
0.571192
0.147244
-0.00736049
0.393852
0.459241
-0.56506
-0.240762
-1.54038
1.48498
0.0553951
0.212052
-1.10222
1.54411
0.946579
1.38252
-1.46727
0.08475
0.000879586
-0.000881788
0.000469056
-1.00245
0.886141
-0.851165
1.1507
-0.299537
0.81874
1.42442
1.30027
-0.718222
-0.637696
-0.380095
0.662565
2.33667
-0.974582
-0.14274
-0.924343
0.235529
-0.656876
0.421351
0.058123
0.809261
0.286276
-0.871693
1.04844
-0.0569212
-1.1917
0.943911
-0.241278
-0.134502
0.788056
-0.115815
1.24366
-1.35991
1.35833
0.00158615
-1.04215
-0.502617
-1.53257
-0.766532
0.380074
0.0525239
0.62502
-0.677549
1.20936
-0.152765
-0.150554
1.70148
-0.486993
-1.21448
-0.139839
0.766174
-0.410998
-0.636421
-0.229803
-1.40156
1.33568
1.96267
0.00354715
-0.00246357
-0.00108355
0.00194626
-0.00734408
0.00539774
-0.0264106
0.0276907
-0.00128016
0.0411103
-0.0214672
-0.019643
-0.00517369
-0.00517602
0.0103494
-0.0105615
0.00538764
-0.0435078
0.00114767
0.042359
-0.0205837
-0.101565
0.122148
-0.00504269
-0.00580406
0.0108468
-0.0676698
0.0519161
0.0157532
-0.111534
0.0712226
0.0403108
0.0726465
-0.0183304
-0.0543124
0.00727051
-0.00447619
-0.00279432
-0.499451
0.317923
0.181576
0.0204833
0.00132382
-0.0218071
0.00737334
-0.00513001
-0.00224335
-4.42817e-05
4.30311e-05
0.00430423
-0.00934693
0.00654921
-0.00593518
-0.000613944
0.0153851
-0.0285096
0.0131247
-0.00676867
0.00693848
-0.000169722
0.00401667
0.00335662
-0.0358462
0.00618243
0.0296638
0.0335451
-0.0308133
-0.00273165
0.0109804
0.00735168
-0.018332
0.0294041
-0.0184236
-0.0541927
0.0102299
0.0439624
-0.0384649
0.0555162
-0.0170512
0.00114049
-0.00114173
-0.00662995
-0.00733958
0.0139691
-0.0118059
-0.0649352
0.0767545
-0.011825
0.000240861
-0.0537162
0.0534784
-0.0370603
0.00807731
0.0289826
0.00251332
0.0151674
-0.0176808
-0.0022303
-0.011682
0.0139123
0.00221116
-0.00221202
0.0142778
-0.0374135
0.0231356
0.00504467
0.00661279
-0.0116575
0.0104458
-0.00148078
-0.00896499
-0.0093161
0.0846088
-0.0752939
0.0653549
-0.074672
0.050605
0.0223584
-0.0729639
0.0664478
-0.0158429
0.00667221
-0.00376026
-0.00291197
-0.00483044
0.0463163
-0.0414868
0.0605245
0.010278
0.0102048
0.0201284
0.00505347
-0.0225443
0.0174908
-0.0182197
0.0193218
-0.00110213
-0.00562869
-0.0125911
0.0493153
-0.0392642
-0.0100513
-0.0429534
0.00275559
0.0401978
-0.00737371
0.00461426
0.0027594
0.00865467
-0.00797676
-0.000678017
-0.0078073
0.0231118
-0.0153044
-0.0534327
0.0536745
0.0192148
-0.011261
0.00393782
-0.00579455
0.00185669
-0.0168423
-0.0373505
-0.000817118
-0.00422373
0.00504089
-0.0200986
0.0144699
0.0126153
0.00156857
-0.0141839
0.00652627
-0.013866
-0.634943
0.310877
-0.0149439
0.00713657
-0.0023309
-0.00074949
0.00307956
0.018469
-0.0167952
-0.00167376
0.00884008
0.00962892
-0.0072964
-0.00764741
0.00359162
-0.010888
0.00468013
-0.0123275
0.00486494
-0.00871063
0.00384545
-0.00383663
-0.002456
0.00629249
0.00062047
0.00968068
-0.0103012
0.0469213
-0.0366911
0.00845659
-0.0365352
0.0232592
0.0132768
-0.0117567
0.0168507
-0.00509395
-0.00351901
0.0174876
0.0121669
-0.00938512
-0.00278176
0.043318
-0.0348614
0.0456286
-0.00231061
-0.0453495
0.0104881
0.0611153
-0.674127
0.613006
0.00338856
0.00526596
-0.00477792
-0.00259587
0.0678403
-0.346892
0.279055
0.168799
-0.505004
0.336206
-0.00199505
-0.00423362
0.0062288
-0.00396887
0.00522522
-0.00125642
0.0204582
-0.0116181
-0.00504945
0.0198675
-0.0148179
-0.0277249
0.0117653
0.0159598
-0.0187888
0.0283915
-0.00960264
-0.0465138
0.040157
-0.00693213
-0.00487357
-0.011586
0.0162662
-0.00640311
0.00834937
-0.00576382
0.00708764
0.0154371
-0.0348273
0.048933
-0.0141057
-0.0544304
0.0196029
-0.00406597
0.0180429
-0.013977
0.00406239
-0.0173382
0.0132758
-0.0601396
-0.0513937
0.269933
-0.586561
0.316625
-0.00676923
0.0472243
-0.0404552
0.0425459
0.0288941
-0.366288
-0.133146
-0.0120761
-0.00973084
0.00873132
0.01178
-0.0205113
-0.146816
0.209293
-0.0624748
-0.000669512
0.000669236
0.0623816
-0.0268405
-0.0355415
-0.00608376
0.00896581
-0.00288227
-0.0461798
-0.0112915
0.0574708
0.00942078
0.0060164
0.0124085
-0.00690944
-0.00549911
0.00798269
0.0113392
0.0120451
0.000776179
0.010563
0.192412
0.11684
-0.309249
0.0210234
0.00592024
-0.0269434
0.00257553
-0.0146516
0.467758
0.122152
-0.589907
-0.7559
-0.126606
-0.00362769
-0.0233158
0.0386061
-0.00500914
0.0349784
0.0296284
-0.0225786
-0.00704915
0.0122159
-0.0405544
-0.00835419
0.00142216
-0.00923148
0.000877461
-0.39617
0.490754
-0.0945777
-0.513827
0.507143
0.0233889
0.0321274
0.0393487
0.065967
0.0131098
-0.0790608
-0.0499421
0.0403395
-0.00100928
0.0405614
-0.000221723
0.00101118
0.0340283
-0.0350396
-0.0419423
-0.00627968
0.00473763
0.00154209
-0.0567456
0.0105656
0.000123283
0.033422
0.00957317
0.00453387
-0.014107
-0.0055072
-0.011288
-0.00675412
-0.640969
0.497386
0.143585
-0.0253452
0.0216654
0.00367999
0.00405897
-0.0148697
0.247714
0.239813
-0.487523
0.346786
-0.0990683
0.56321
-0.00871398
-0.000671092
0.00137813
0.0104019
-0.00733575
0.0316345
-0.0345256
0.0360353
-0.0296783
-0.0642039
0.328754
-0.151775
-0.176982
0.00320363
0.00461808
-0.00782174
-0.00432109
0.00759294
-0.00327192
-0.00653907
-0.01472
0.0212582
0.0103297
-0.0168695
-0.0125947
0.005259
0.000757125
-0.0133517
0.0120431
-0.00678401
0.0289938
0.0253207
-0.0543143
0.034139
-0.00326685
-0.0308713
-0.0127246
-0.0514793
0.0391314
0.00204021
0.0264069
0.0090947
-0.001127
-0.0079677
0.00306574
0.00602896
-0.015523
-0.0156643
0.0311876
0.0118431
0.011487
-0.0233298
-0.0041771
0.00224978
-0.00621862
-0.00705427
-0.0287919
0.0283267
-0.0129415
0.00522322
-0.00903156
0.00380833
-0.00686747
0.00668984
0.000177568
-0.027521
0.0134362
-0.00745745
0.0338644
0.0154886
-0.0180495
0.00256033
0.0220146
-0.0231128
0.926576
0.212258
0.599628
-0.447787
-0.18863
-0.0106307
-0.00741919
0.00581539
-0.0164467
0.00897783
-0.0163973
-0.0515867
0.0111239
0.0404629
-0.000329397
-0.0585427
0.0588717
0.00773322
0.0132943
-0.0210275
-0.0150849
-0.00824488
0.031151
0.00287768
-0.00467616
-0.0261369
0.0264751
0.00793588
-0.00262754
-0.00530843
0.00719953
0.000736222
-0.00791076
0.00528319
0.0177593
-0.0152461
-0.530784
0.596853
-0.517652
0.594851
-0.0771855
-0.00310652
-0.00697672
0.0100832
0.0287198
-0.0887582
0.0317271
-0.0174493
0.00531637
0.0281793
0.0129986
0.00901562
0.018438
-0.00544032
-0.0155071
0.024522
0.0682705
-0.0565632
-0.0117093
0.00431428
-0.0204071
0.0160929
0.0214372
-0.00922123
0.0257514
0.323643
-0.340649
0.0170035
0.00222995
0.0101786
-0.00881435
-0.000417035
-0.00658443
0.00976167
0.493329
0.942759
-1.4361
-0.000291048
0.000291275
-0.568374
-0.0622674
0.630635
-0.816243
1.30956
-0.000714903
4.78488e-05
0.466078
-0.404958
-1.05834
1.05834
0.131564
0.944786
-0.886207
0.65195
0.234254
-0.410207
-0.476
1.23799
-0.26633
-0.97165
0.134347
-0.0750035
-0.059352
-0.529087
-0.111884
-0.0987734
-0.43032
-0.8196
0.915794
0.182907
0.320228
-0.503131
0.37532
0.0398003
0.657861
-0.697658
0.487129
-0.447327
0.0874489
-0.0214779
0.601793
-0.624909
0.540288
0.0615016
0.141269
-0.112549
0.484426
-0.239654
-0.244775
0.192877
0.291545
0.00340334
-0.00348258
7.93797e-05
-1.01714
-0.145023
0.571208
-0.426199
0.000105968
-0.000106059
0.401994
-0.943338
0.54134
-0.551939
0.604459
-0.30495
0.591228
0.0821535
0.0591164
-0.613105
-0.214712
0.82782
-0.0756526
-0.0221721
0.0978269
0.0118031
-0.155072
0.00539168
0.149682
0.644588
-0.70227
0.0891726
-0.333472
-0.368794
-0.696242
0.362776
-0.918633
0.049384
-0.996112
0.754836
-0.156975
-0.436194
-0.237934
-0.650495
0.420698
-0.127799
0.362958
-0.872829
0.494851
-0.606292
-0.266528
-6.51692e-05
6.51258e-05
0.000736234
-0.00368032
0.00294395
1.0395
-0.153557
-0.00779329
-0.66782
0.675611
0.933865
-0.622484
-0.311331
0.327574
0.216779
-0.705236
0.66143
-0.0943684
-0.567071
0.882328
0.737451
-0.31088
0.712877
0.0312546
0.0601494
0.00643387
-0.187314
0.231868
-0.0445534
0.21675
0.427835
-1.15277
1.15276
-0.486103
-0.210147
-0.726815
-0.274503
0.806418
-0.311561
0.0796083
0.269655
0.196424
-0.00308113
0.00222397
0.000857426
0.795218
-0.525288
0.309116
-0.0232881
-0.091124
-0.00924181
0.00265729
0.806167
-0.951199
-0.455145
2.00373
1.02983
-0.539635
0.355151
0.184491
-0.26998
-0.328544
-0.329686
0.658224
0.0394684
0.245398
-1.48966
0.852992
-0.607599
-0.0886272
-0.257794
0.346421
-0.275941
1.20002
-0.0582831
0.0414405
-0.0359243
-0.607401
-0.212182
1.07488
0.244913
-0.582875
0.33798
-0.833079
-0.588161
-0.795782
0.251654
-1.04745
-0.0115604
-0.01299
0.0534579
0.0612123
-0.94997
0.719077
-6.12253e-05
-4.10468e-06
1.21975
-0.679419
1.89915
0.221213
1.04052
-0.819311
0.941747
-0.924322
-0.0928163
-0.297878
-0.284988
0.645082
-0.0199789
0.00447139
-0.0174188
-0.0292776
0.0118582
0.107264
-0.647552
0.727276
-0.0797288
0.296956
-0.600977
0.975021
-0.374053
-0.0297721
0.776389
1.022
-1.16184
0.00683021
-0.639539
0.264508
-0.14071
-0.003718
0.0282397
0.0416699
0.190199
-0.0708789
1.2811
0.21218
0.855683
0.0397254
-0.0369697
0.00046168
0.0127648
-0.103889
-0.0759932
-0.146872
-0.0211092
-0.0631994
0.418228
-0.497957
0.51354
-0.0953106
0.347962
0.165581
0.417701
-1.34257
0.157202
0.0374496
-0.493245
-0.163624
-0.455792
0.57493
0.0380785
-0.455765
0.292138
-0.104191
-0.351571
-0.361984
1.14014
0.136146
0.826935
-0.690792
0.560607
-0.000157415
-0.000133924
0.00413993
-0.779442
-0.461509
-0.588106
0.0234622
1.39212
0.712708
-0.754558
-0.00675065
0.00799168
-0.00124102
0.00232288
-0.00907355
-0.000101279
0.00541614
-0.00531487
-0.00402039
-0.00612391
0.0101443
-0.146154
0.264812
-0.118655
0.00363462
-0.00465545
0.00102082
0.0070784
-0.00266801
-0.00441039
-0.00677952
0.0046137
0.00216586
-0.00485782
0.00268139
0.00217644
-0.0128615
0.0125172
0.000344312
0.0117257
-0.00208424
-0.00964145
0.003169
0.00855668
-0.0141393
0.00278532
0.0113539
0.00639452
-0.00179667
-0.00459786
0.003333
0.00306151
-0.0124207
0.00289385
0.00952675
0.0070093
-0.0194299
-0.00496688
-0.00295091
0.00791778
-0.00845358
-0.000700138
0.00915371
0.00232781
0.00798784
-0.0103157
0.00476259
0.00133379
-0.00609632
0.00272407
-0.00762471
0.00490064
0.00900182
-0.00990774
0.000905911
0.00201473
0.00698708
-0.00701649
0.00401236
0.00300413
-0.00372415
-0.00329234
0.00307627
-0.00694604
0.00386976
-0.00101356
0.0085101
-0.00749655
-0.00171959
0.00298157
-0.00126174
-0.00349092
0.00182858
0.00166237
-0.00159217
-0.00205784
0.00364987
0.00275121
-0.0043435
-0.0033683
0.00915209
-0.00578377
-0.00695401
0.00143162
0.00552239
-0.00215603
-0.00479799
0.00494024
-0.00735031
0.00241007
0.00086615
0.00379499
-0.00466117
0.00649485
-0.00754588
0.00105103
0.00337191
-0.00296126
-0.000410517
0.0037136
0.00242877
-0.00614237
0.00276264
-0.00417205
0.0014095
-0.0066017
0.00163482
0.00613446
0.00201348
-0.00814795
0.00480441
0.0013301
0.00264253
0.00690178
-0.0095443
0.00838745
-0.00893811
0.000550654
0.00831659
0.000193692
-0.00851027
-0.00698169
-0.000565362
0.00754697
-0.00727337
0.00024615
0.00702719
-0.00318776
0.00626403
0.00713068
-0.0110673
0.00393666
-0.0116859
-0.00117563
-0.00612148
-0.00556436
-0.0256436
0.0213464
0.00429697
-0.00135495
-0.343145
0.344503
-0.00817572
0.00484693
0.00332878
-0.00607586
0.00639171
-0.000315862
0.192826
-0.194178
-0.00418183
-0.00460325
0.00878509
-0.00992357
0.00184544
0.00807812
-0.00235955
-0.00756403
0.0194012
-0.00841458
-0.0109866
-0.00352221
0.0229235
0.00746345
-0.00141586
-0.0060476
0.0036069
0.00385656
-0.00607218
0.0104442
-0.004372
0.00476124
-0.00811054
0.00334929
0.00834154
-0.00500853
-0.000746995
0.00978043
-0.0090335
0.00546606
-0.00583315
0.000367093
0.00744707
-0.0098301
0.00238306
0.008919
-0.00891878
0.0021834
0.0139335
-0.0161169
-0.0106559
0.00566834
0.00498751
-0.00840698
0.00209669
0.00631028
0.00850493
-0.00850492
0.00725325
-0.00725328
0.00136638
0.00782719
-0.00919358
0.0448569
-0.0249591
-0.0198977
-0.00391078
-0.00527257
0.00918334
0.00761182
-0.00682536
-0.000786194
-0.0208348
0.00556418
0.0152707
0.0103207
-0.0311555
0.00390031
0.00361212
-0.00751243
0.00394529
0.00332515
-0.00387159
-0.00403922
-0.00187613
0.0144915
-0.0042512
-0.0057463
0.00999749
0.00600219
-0.00262905
-0.00337314
-0.00605547
-0.00165154
0.00770717
-0.0121748
0.00449653
0.00767841
-0.0112924
0.00698
0.0043124
-0.0035172
0.00698931
-0.00347212
0.00167837
-0.00519558
0.0100289
-0.0078219
-0.00220706
0.00798259
0.00129236
-0.00927495
-0.00771299
-0.00146474
0.00917773
-0.00416568
-0.00354732
-0.00225939
-0.00675559
0.00901497
0.00292631
-0.00652945
0.00360313
-0.00222818
0.00662574
-0.0043976
0.000634757
0.00472429
-0.00535908
-0.00340626
-0.00332896
0.00673521
0.00840991
-0.0050628
-0.00334712
-0.00967969
-0.000586788
0.0102664
0.0109233
-0.00601176
-0.00491152
0.00439034
0.00591779
-0.0103081
-0.00832098
0.00644917
0.00187174
-0.00811011
0.00716687
0.000943278
-0.00677775
0.0115184
-0.0047407
0.00615727
0.00129486
-0.00745214
0.00700911
0.00099555
-0.00800466
0.00917118
-0.00335743
-0.00581376
0.00289946
-0.00696399
0.00406455
0.00214978
-0.00764034
0.00549058
0.00616648
-0.00287646
0.00644417
-0.00356771
-0.00789646
0.00162254
0.00627392
-0.0178439
0.0201376
-0.00229383
0.00288338
-0.00576316
0.00287977
0.00305893
0.00489177
-0.00795071
-0.00596921
-0.0029624
0.0089316
0.0022795
-0.0082487
0.00739518
-0.00252824
-0.00486693
0.0077878
-0.000392586
0.019065
0.0257929
0.00484925
0.00395925
-0.0088085
0.0106466
-0.0100646
-0.000582009
0.00890615
-0.00890478
0.00568146
0.00356987
-0.00925133
-0.00610234
-0.00141876
0.0075211
0.0127695
0.0256869
-0.0384565
-0.00369707
0.00847845
-0.00478139
0.00214903
0.00587036
-0.0080194
0.0146061
-0.0122515
-0.00235464
-0.00416104
-0.000676845
0.00483788
0.00865288
0.00138608
-0.010039
-0.00351019
0.00601897
-0.00250877
0.00662564
0.00483541
-0.0114611
0.000351014
0.00616313
-0.00651416
-0.00215503
-0.00679881
0.00895383
-0.000730215
0.00706929
-0.00633908
-0.026562
0.0443321
-0.0177697
0.0340739
-0.060636
-0.00831249
0.00217687
0.0061356
-0.00379503
-0.00451746
-0.00960031
-0.00221075
0.011811
0.00760759
-0.00305987
-0.00454774
-0.0107546
0.0049896
0.00576494
-0.00649019
0.00923366
-0.00274345
0.000902854
-0.00641152
0.00550867
-0.00182368
-0.00396805
0.00579174
-0.00864464
0.00232463
0.00632001
0.00112952
0.0020281
-0.0031576
-0.0014402
-0.00341765
-0.00161112
-0.00513993
0.00675104
0.00910243
-0.00882151
-0.000280932
0.00930906
-0.0115684
0.0114189
-0.00835321
0.00198757
0.0030647
-0.00505229
0.00788298
-0.00589546
-0.0155096
0.020776
-0.00526643
-0.0129136
-0.00259623
0.00142424
0.00638414
-0.00780838
-0.00858365
0.00829646
0.000287195
-0.00549014
-0.00309352
0.00873604
-0.00692182
-0.00181423
0.00658795
-0.0103121
0.0016122
-0.00753955
0.00592735
-0.00387183
0.00651436
0.00506981
-0.00894162
-0.00651812
-0.00556523
0.0120834
-0.0076549
-0.00354299
0.0111979
-0.0126002
0.0058446
-0.0064787
0.00307245
1.47067e-05
0.00484588
-0.00486059
0.00526754
-0.00476449
-0.000503037
0.00173829
0.00352925
-0.0020854
0.00801268
-0.00592728
0.00477424
-0.00693027
0.028896
-0.00887175
-0.0200247
0.0362403
-0.00734466
-0.0311548
-0.00625879
0.00998295
-0.00935283
-0.000630128
0.00782792
0.00806167
-0.00640502
-0.00165663
0.00128216
-0.0103701
0.00396507
0.00308944
-0.0148461
0.00710986
0.00229641
-0.00940629
-0.00894166
0.00963086
-0.000689211
-0.00740032
-0.000226907
0.00762721
0.0036719
0.00713784
-0.0108097
0.00648549
-0.00709953
0.000614186
0.00566198
0.000247038
-0.00590891
-0.0229174
-0.0172748
0.0401917
0.00623535
-0.00993243
-0.00408631
0.0105175
-0.00643126
-0.00697264
0.00115103
0.0058216
0.000174109
-0.00924058
0.00906646
0.00992899
0.00054114
-0.0104701
0.00254729
0.00440164
-0.00694893
0.00773247
-0.0107287
0.00299625
0.00527582
0.000904548
-0.00618036
0.128839
-0.048782
-0.0800561
0.000619058
0.00855212
0.00762817
0.00822659
0.00429076
-0.0125174
-0.00393623
0.0092885
-0.00535228
0.00184984
0.0058179
-0.00766774
-0.00846004
0.00495398
0.00350606
-0.00261694
-0.00570407
-0.00912615
0.0182464
-0.00912034
-0.00214842
-0.00557175
0.00772015
-0.0013836
0.00842348
-0.00703989
0.00575221
0.00645212
-0.0122044
0.00805212
-0.00800285
-4.92925e-05
0.0111253
-0.00795626
0.0100001
-0.0074552
-0.00254491
0.00224485
-0.00932504
0.00708018
-0.00502074
0.00726559
-2.08223e-05
0.0060978
-0.00607697
0.0100667
-0.00431449
0.00404183
0.00484882
-0.00889066
0.00469573
0.00335637
-0.00443213
0.00912786
0.00980848
-0.00587222
0.00947912
0.00778726
-0.002847
-0.00172093
0.00834656
-0.00974018
0.00637189
-0.0196029
0.00351612
0.0160867
-0.0113478
-0.0082551
-0.00850288
0.00684837
0.0016545
-0.00825512
-0.000247758
-0.000758181
0.00528589
-0.00452772
0.00434976
-0.00687768
0.00252804
0.0267965
0.0322951
-0.0590907
-0.0376864
-0.016625
-0.0108898
0.0034791
0.00207785
-0.00555695
0.00543651
-0.0018019
-0.00559583
0.0125972
-0.00700142
0.00219219
-0.00666944
0.00447726
-0.0106118
0.00670924
0.0039025
-0.00652132
0.00350198
0.00301932
-0.00769921
0.00779734
-9.81261e-05
0.00268504
0.0143269
-0.0170119
0.00969433
0.00787092
0.006456
-0.00601115
0.0112745
-0.00526337
-0.00831301
-0.00278377
0.0110968
-0.00412577
-0.00441856
0.00854432
-0.00147504
-0.00710339
0.00857842
0.00133444
-0.00882195
0.00748751
0.00655169
-0.00990913
0.013549
-0.00277993
-0.010769
0.0090882
0.00343195
-0.0125202
0.0079725
-0.0219597
0.0139874
0.00106156
-0.00946384
0.00840228
-0.00543416
0.0116067
-0.00617257
0.00768035
-0.000387884
-0.00729246
-0.00141333
-0.00803601
0.00944934
0.00687305
-0.00646087
-0.000412197
-0.000400334
0.000659879
0.00204688
-0.0027067
0.0111231
-0.00203485
0.00628921
0.00483388
0.0115141
0.00235424
-0.00734877
0.00499455
-0.00703572
0.0062297
0.000806015
-0.00400323
-0.00303247
0.000115763
-0.00960391
0.00948814
0.00791121
-0.00447925
-0.00116912
-0.0102651
0.0114342
-0.00992022
0.0087511
-0.00631956
0.0100529
-0.00373329
-0.00664783
-0.00209067
0.0087385
-0.0157696
0.0107349
0.00503475
0.0123027
-0.0148711
0.00256847
-0.0375743
-0.00593404
0.0752235
0.0536162
0.0117549
-0.00310171
-0.00865319
0.0171347
-0.0120812
0.00893245
0.00809379
-0.0170262
0.0103464
-0.00892215
0.00145794
0.00888843
-0.00769563
0.00915357
-0.0024074
-0.008107
0.0105144
-0.00257703
-0.00250688
0.00508377
-0.0378241
0.0215143
0.0163096
0.0328552
-0.0304987
-0.00235675
-0.00161253
-0.00186901
0.00348154
-0.0361881
0.0246631
0.0115248
0.00465328
-0.0173758
0.0127227
0.00058641
-0.0100596
0.0094732
0.00116828
-0.0104897
0.00932136
-0.0121367
0.0045491
0.00758765
-0.00573898
0.00822106
-0.00248205
-0.0049683
0.00935865
0.00595498
0.0005038
0.0045614
-0.0050651
0.00181931
0.00545181
-0.00727106
-0.00726439
-0.00104477
0.00830914
0.00327423
-0.0073381
0.00406385
-0.00203446
0.00950801
-0.00747346
0.00640782
0.00483682
-0.0112445
-0.00293432
-0.0064374
0.00937172
0.00663506
-0.0101898
0.00355479
0.00519636
-0.00622509
0.00102878
-0.0039373
-0.00403945
0.00125907
-0.00688261
0.00465442
-0.0081179
0.00823366
-0.00880252
0.00154217
0.00726034
-0.00860355
0.00962344
-0.0010199
-0.00726911
-0.00345202
-0.00914819
-0.0111069
-0.00324887
-0.00701626
-0.0100266
-0.000611172
-0.0064051
0.00335307
-0.00688295
0.00352982
0.00770281
-0.00142659
-0.00322886
0.00868069
-0.00955553
0.000874834
0.00140482
0.00727586
-0.00995185
0.00409182
0.00586003
-0.00603809
-0.00394187
0.00997993
-0.0158966
0.0100099
0.00588658
-0.00966059
-0.00623598
-0.00421568
0.00815884
-0.00394317
0.00577709
0.00399791
-0.00977491
0.000812121
-0.00738079
0.00656866
0.0164988
0.00661322
0.021152
0.149289
-0.243863
-0.193856
-0.000924589
-0.00680136
0.00772592
-0.00541962
0.00449503
-0.00535287
0.011439
-0.00608615
-0.00166282
0.00388415
-0.00222129
0.018147
-0.0140852
-0.00406168
0.0012214
-0.00635142
-0.0144737
-0.0248653
0.0393387
0.0226193
-0.0370932
0.0116378
-0.0168055
0.00516779
0.00450587
0.00593701
-0.0104429
0.0202583
-0.0110713
-0.009187
-0.00864185
0.0167494
-0.00810755
-0.0131035
0.0256293
-0.0125258
0.0145872
0.0322984
-0.00666905
0.00374131
0.00400463
-0.00774594
0.0176792
0.0234311
0.0399339
-0.0226468
-0.0172872
0.00955839
-0.0116064
0.00204803
-0.00902176
0.00929817
-0.000276417
-0.0156351
-0.00174069
-0.00849852
-0.0126148
0.0108742
0.0155214
-0.01192
-0.00360143
-0.0287026
-0.0221788
0.0508829
-0.0523067
0.0233124
0.0289956
0.0145888
0.000312922
-0.0149017
-0.00785929
0.00458275
0.00327649
0.00220218
-0.00496638
0.00276421
0.00372384
0.00126819
-0.00499203
0.00592602
0.00643484
-0.00248319
-0.00395154
0.00442258
-0.00378783
-0.00209874
0.00301034
-0.00789632
0.00488592
0.00762458
-0.0100078
0.00946578
0.000542049
-0.00555912
-0.00444871
-0.00253223
-0.00525508
0.00778731
-0.000346907
0.00828966
-0.00794275
0.00835499
-0.0087019
-0.00214705
0.0114561
0.0092719
-0.0024816
0.00598376
-0.00350217
-0.00505158
0.00256994
0.00987203
0.00546213
-0.0153341
-0.00634982
-0.0114941
-0.00603194
-0.00278659
-0.00706331
0.0098499
0.00489181
-0.0076784
-0.000357691
-0.00670563
0.00232228
-0.0100441
0.00772183
0.00320169
0.00632803
-0.00952973
0.0104878
-0.00385276
-0.00500028
0.00325192
0.00174841
0.00888139
-0.00325063
-0.00563077
-0.00652575
0.00652639
-0.0185171
-0.0143062
0.0328233
-0.00764854
0.006056
0.00159263
-0.00446436
-0.000955269
0.0253648
0.0047796
-0.0301445
0.0143918
0.0109729
-0.0207192
0.0254989
0.00585918
-0.00464474
-0.00121445
-0.00234252
-0.00436809
0.0067106
0.00351667
-0.00862313
-0.00355168
0.00919271
0.00632868
-0.00187763
0.0110704
-0.00722569
0.0135543
0.00989643
-0.000651702
-0.00924473
0.0058316
0.00406484
-0.0135312
0.0128795
-0.00397338
0.00616558
0.00496453
0.00588992
-0.0108545
-0.00632788
-0.00288534
0.0099952
-0.00152858
0.00360675
-0.00207813
0.00171188
-0.00644653
0.00473465
0.0115668
0.00109239
-0.0126592
0.00521262
-0.0118669
0.00665423
-0.00532441
-0.00113707
0.00646139
-0.00549548
0.00485142
0.000644051
-0.0489215
0.0659945
-0.0170726
0.00490389
-0.00881468
0.00919877
-0.00226984
-0.00692894
0.000885758
0.052795
-0.0357129
-0.0170805
0.00311238
0.00321299
-0.00632537
0.00610791
-0.00299555
0.00636446
-0.00315149
0.00932164
-0.0206694
-0.0451983
0.0272261
0.0179719
0.0385311
-0.0144156
-0.0241156
-0.0187381
0.022214
-0.00347582
0.0178927
0.00076817
-0.0186609
0.00804417
0.004473
0.00921246
-0.00648553
0.0109585
-0.0284106
0.0127283
0.0156822
0.00940058
-0.00961248
0.000211889
0.00437242
0.00502816
-0.00661693
-0.00328212
0.00989905
0.00481731
0.00414837
-0.00858049
-0.00156356
-0.00593248
0.00749603
-0.00906093
0.00506466
0.00399627
-0.0106245
0.00336945
-0.0109446
0.00757513
-0.00943613
0.00776063
0.0016755
-0.00606669
0.00234913
-0.00371661
0.00136733
0.00237856
-0.0087381
0.00635953
-0.00265778
0.00265688
-0.00195778
0.00857966
-0.00662189
0.00323387
0.00574464
-0.00897852
0.0205928
0.019341
0.00234973
0.00771998
-0.0100697
-0.00275372
0.00275357
0.00162847
0.00492079
-0.00416062
0.00578915
-0.00813106
0.0104533
0.00248204
-0.00513363
0.00265148
0.00541042
-0.00256918
-0.00284125
0.00789253
0.00417687
0.00253961
-0.00671648
-0.00386914
0.00664094
-0.00277181
-0.00761286
0.0060235
0.00158938
0.00791667
-0.00169347
-0.00622317
-0.005704
-0.0035398
0.0092438
-0.0086664
0.000845522
0.00490711
-0.00575264
-0.00576088
0.0144603
-0.00869932
0.000730424
0.00656004
-0.00729047
0.00674041
-0.00601
0.00194882
-0.00195003
0.00862917
0.00269073
-0.0113199
0.00454058
0.00408857
-0.00556922
0.00825995
0.0100757
-0.00867091
0.00250363
0.00742535
0.00963431
0.00759946
0.00788085
-0.00576886
-0.00211199
0.000554245
-0.00725047
0.00669624
0.00697933
-0.00642507
-0.000219376
0.00673688
-0.0065175
0.00541171
-0.00563108
0.00524895
0.000156456
-0.0054054
0.0176654
-0.0166714
-0.000994067
-0.00902354
0.0195227
-0.0104992
0.0274614
-0.0123142
-0.0151472
0.0269611
0.000500353
0.0199841
-0.00922114
0.0018771
-0.00050725
0.0079307
-0.00742347
0.00663139
-0.00705566
0.000424257
0.00958732
-0.00801875
0.00344963
-0.00996776
0.013037
0.00183691
-0.00183746
0.00449444
-0.00538544
0.000890993
-0.00604314
0.00896944
0.00869707
-0.0110566
0.02204
-0.00927051
0.00810445
-0.0232517
-0.0325222
0.00960584
-0.00346055
-0.0061453
0.00191021
-0.00862046
0.000705507
0.00791493
-0.00797699
0.00933375
-0.00135681
0.0315699
0.000557544
-0.00440406
0.00440354
-0.00467323
0.00635158
-0.0067813
0.00390483
-0.0290853
0.0034346
0.0256506
-0.0159549
-0.0131303
0.0322302
-0.0287956
0.00345849
-0.00345822
-0.0166606
-0.00830266
0.0249631
-0.0235918
0.0146893
0.00890237
0.0012929
-0.00129326
0.00182348
-0.00182329
0.00306871
-0.000317471
0.00415953
0.00163839
-0.0057979
0.00417423
0.00452176
0.0059618
0.000790587
-0.00675239
0.00214416
0.0047075
-0.00685167
0.000461636
0.00657537
-0.00703701
-0.036776
0.0201154
0.00428125
0.00254445
-0.0068257
0.0051402
-0.00785159
0.00271139
-0.00489446
0.00614694
-0.00125251
0.000245725
0.00681369
-0.00483999
-0.0019737
0.00419842
0.00261528
-0.00605016
-0.000751214
-0.0010489
0.0010492
-0.0221202
0.039052
-0.0169319
-0.0285137
0.00472679
0.0237872
-0.022594
-0.00591966
0.0265007
-0.0217737
0.00691162
-0.00241502
0.000856175
-0.00626196
-0.00530587
0.0115678
-0.0118578
0.00693143
-0.0122373
0.0207005
-0.0131226
-0.00757793
0.00060191
-0.0308936
0.0177709
0.008037
-0.00237503
-0.00185252
0.00185266
0.00710187
-0.0135874
-0.0108016
-0.00254818
0.0133495
0.0254062
-0.031838
0.00643197
-0.0100751
0.0354813
-0.00200392
0.00747164
-0.00546772
-0.00843773
0.00643378
-0.003662
0.0074435
-0.00378155
0.0042096
-0.00629972
0.00209009
-0.0109194
0.0115058
-0.0072591
0.00241912
-0.00184739
-0.00622553
0.000495047
0.00862135
-0.0091164
0.00717706
-0.00668202
-0.0116828
0.0135385
-0.0018556
0.00548611
-0.0119729
0.00648684
0.00760157
-0.00987141
-0.00110066
0.00110077
0.000896225
-0.000896012
0.0161912
-0.0110942
-0.00509699
0.00778078
-0.00509325
-0.00268758
0.00761289
0.000167902
-0.00701699
0.00174441
-0.00354947
-0.00346754
-0.00737289
0.0020485
-0.00332193
-0.00730257
-0.00881206
0.0020115
-0.00554683
0.00353542
-0.0375673
0.0156247
0.0219423
-0.028435
-0.00775316
-0.000652031
-0.00704721
0.00701412
0.000902537
-0.00343047
-0.00440051
0.00783096
0.00108029
0.0111939
-0.0122742
0.00854122
0.00273139
-0.0112725
0.00306446
-0.00627627
0.00321181
-0.00186628
0.00493074
-0.00285131
0.00789598
0.00759446
-0.0012629
0.01222
-0.0109571
-0.0129458
-0.00144853
0.00144715
0.000183677
-0.00163329
-0.0110157
0.0082358
-0.00442588
0.00643632
-0.00201045
0.00126107
-0.00568694
0.0014371
-0.00143794
0.00146618
-0.00591204
0.00444585
-0.00352959
0.00700868
0.00877077
-0.00769924