/*--------------------------------*- C++ -*----------------------------------*\
  =========                 |
  \\      /  F ield         | OpenFOAM: The Open Source CFD Toolbox
   \\    /   O peration     | Website:  https://openfoam.org
    \\  /    A nd           | Version:  6
     \\/     M anipulation  |
\*---------------------------------------------------------------------------*/
FoamFile
{
    version     2.0;
    format      ascii;
    class       volVectorField;
    location    "300";
    object      U;
}
// * * * * * * * * * * * * * * * * * * * * * * * * * * * * * * * * * * * * * //

dimensions      [0 1 -1 0 0 0 0];

internalField   nonuniform List<vector> 
29874
(
(7.52039 0.0674609 1.01045e-16)
(5.3824 0.0298276 -8.98476e-17)
(5.42211 -0.121105 1.86793e-16)
(7.10665 -0.0817106 -1.05738e-16)
(7.79709 -0.110534 0)
(7.41586 0.00882943 -9.88509e-17)
(4.80598 0.0970923 9.54655e-19)
(7.12423 0.0167381 3.41451e-18)
(7.44754 -0.00532545 -1.10591e-17)
(7.19159 0.211541 -1.63397e-17)
(7.18442 -0.11309 0)
(7.21945 0.106939 -3.67324e-17)
(4.43674 -0.0538335 9.52923e-17)
(8.25285 0.0543965 0)
(6.76637 0.204209 1.06213e-16)
(6.64924 0.139472 0)
(4.29176 -0.0204598 0)
(7.84411 0.215102 -1.38987e-16)
(4.96142 -0.0405787 -1.37411e-16)
(7.99496 -0.0706657 -5.05572e-18)
(7.11887 -0.0229126 3.73904e-17)
(7.07047 -0.0263307 -5.29351e-19)
(7.03973 0.0504348 -9.29202e-17)
(7.52038 0.0298569 0)
(5.76875 0.292688 0)
(7.7686 0.00256967 -3.11192e-17)
(7.9921 -0.034937 -8.54837e-17)
(5.08613 0.118301 1.10268e-16)
(5.33487 0.126572 4.97819e-17)
(4.95881 -0.115403 4.33987e-17)
(8.07073 -0.0746863 -2.55131e-17)
(5.29704 -0.0993024 -2.38646e-16)
(7.87527 0.0622124 0)
(5.20946 -0.0277822 -4.55688e-17)
(7.43386 0.112054 3.00108e-17)
(5.51503 0.104911 8.8001e-19)
(7.06604 -0.0189438 0)
(7.30534 0.308307 -1.05652e-17)
(7.56265 -0.0838378 -3.97291e-17)
(5.38851 0.028956 0)
(7.00043 0.00975551 -4.07893e-17)
(7.03001 -0.021479 8.29682e-17)
(7.3113 0.00435844 0)
(5.63463 0.0439075 -6.2651e-18)
(8.03006 -0.107429 7.46611e-17)
(7.49431 0.0589342 0)
(4.747 -0.150134 0)
(8.48296 0.0503067 0)
(7.25211 -0.0555259 5.13435e-18)
(7.17163 -0.107119 -5.78399e-17)
(4.50797 0.14081 -1.01371e-16)
(7.91587 -0.0923542 0)
(6.80945 0.00293629 -4.33856e-17)
(6.63424 0.0747731 4.37696e-17)
(7.69876 0.159674 -1.82375e-17)
(7.74372 -0.00792872 5.19509e-17)
(4.68208 -0.0779902 0)
(8.14004 0.025776 0)
(7.11799 -0.065151 0)
(7.03557 0.0807842 -4.12981e-18)
(7.27525 -0.130382 1.04947e-18)
(7.24084 0.0110687 -7.22359e-17)
(7.22545 -0.236852 -1.06258e-18)
(7.49076 0.0121334 0)
(5.8146 0.0529362 -4.58145e-17)
(7.50182 0.0243537 -3.10014e-17)
(7.80966 0.15239 -7.1849e-21)
(7.66026 0.01908 4.57077e-17)
(7.68533 -0.0827718 2.08664e-17)
(7.51633 -0.0722374 2.17567e-17)
(8.25254 -0.140209 3.92405e-17)
(7.61538 0.0156846 5.10568e-17)
(7.53148 0.103541 -3.23212e-16)
(5.65357 -0.133322 4.00784e-16)
(7.07783 -0.126601 4.19401e-17)
(8.10356 0.126566 0)
(7.83817 -0.104778 -1.66087e-17)
(8.03939 -0.0949422 1.67415e-17)
(5.04145 0.112907 6.00359e-16)
(7.41626 0.102594 -1.54018e-16)
(5.3461 -0.0923918 -6.78834e-17)
(7.03504 -0.109181 1.21547e-18)
(6.97379 0.131974 0)
(7.41003 0.170246 -2.84947e-17)
(4.83542 -0.490326 0)
(5.2739 -0.337723 -3.51356e-17)
(7.35758 0.000208431 -4.35463e-18)
(7.02947 0.0296404 3.13933e-17)
(7.95999 -0.0939639 9.14858e-17)
(7.57189 -0.0510668 4.86826e-17)
(4.05647 -0.806652 -3.95383e-18)
(7.01093 0.0648613 4.60665e-17)
(6.96537 0.110732 -2.66101e-17)
(7.46264 -0.0169886 3.40201e-17)
(7.20714 -0.0981229 0)
(6.73181 0.0671224 0)
(7.11173 -0.180301 -7.0849e-18)
(4.84156 -0.154465 7.8812e-18)
(3.73566 -0.677467 -1.96374e-17)
(6.3189 -0.0332064 1.31543e-17)
(7.51661 0.0391759 1.92862e-18)
(7.01803 0.079965 1.44196e-17)
(6.99341 0.0778933 0)
(7.40659 0.0718357 -7.21912e-17)
(7.15723 0.0857001 -5.47365e-17)
(3.77658 -0.516649 3.59649e-17)
(4.17664 -0.631231 -2.68604e-17)
(7.5042 0.0278067 2.24321e-18)
(7.60126 0.0319156 0)
(7.24859 -0.103681 -3.38114e-18)
(4.12049 -0.0318313 -2.49834e-17)
(7.96193 -0.155599 7.83751e-17)
(8.01689 -0.15554 -8.4127e-17)
(6.975 0.102495 0)
(6.97957 0.113134 0)
(6.98929 0.0874768 -5.44029e-17)
(6.9461 -0.254159 5.43723e-18)
(7.28638 -0.153853 7.10919e-17)
(-0.0551036 -0.00764277 -2.82195e-16)
(7.05258 0.072655 2.34617e-17)
(6.98841 0.108659 3.93119e-17)
(8.202 -0.158199 -1.05636e-16)
(7.18605 -0.076451 -2.55776e-19)
(7.07754 -0.100182 7.26933e-18)
(7.25169 -0.111624 1.32592e-17)
(6.7006 0.118604 -3.92667e-18)
(7.50004 -0.1224 0)
(7.22052 0.221333 -1.83815e-17)
(7.04238 0.0896677 -4.41419e-17)
(6.66602 -0.255649 3.18255e-17)
(6.99958 0.00607615 0)
(6.83935 -0.229664 2.17233e-17)
(7.20333 -0.105559 -4.05654e-17)
(7.08586 0.0851807 9.45196e-17)
(7.29702 0.109664 3.63151e-17)
(7.11864 0.0469847 -3.19877e-17)
(7.25907 0.112751 7.33991e-17)
(7.12369 0.0184957 -9.8112e-18)
(7.31976 0.242675 8.98849e-19)
(7.10702 -0.153515 5.75418e-17)
(7.72125 -0.250733 -5.32529e-18)
(7.77577 -0.0234442 0)
(7.02583 -0.191862 -3.846e-17)
(7.48541 0.262075 -2.22098e-17)
(7.22084 -0.0647977 -4.80058e-17)
(7.15896 0.181632 -8.01454e-18)
(7.37017 0.0301973 3.09332e-17)
(7.30467 0.0666929 6.55583e-17)
(7.00327 0.00573192 -2.58883e-18)
(6.65681 0.13028 -8.23103e-18)
(7.80614 0.108526 3.04755e-17)
(7.88829 -0.0979493 1.42937e-17)
(6.50582 0.200682 0)
(6.84612 -0.0785591 1.61477e-17)
(7.35589 -0.0642389 2.5888e-17)
(7.02786 0.0518453 3.67723e-17)
(7.13814 -0.0191427 1.83209e-17)
(7.7124 -0.155054 -3.38883e-17)
(7.94185 -0.0725193 3.53736e-18)
(7.96091 -0.106099 0)
(7.72165 -0.111283 -6.49278e-17)
(7.28548 0.102936 1.59384e-16)
(6.95869 0.153044 -5.89618e-16)
(7.68175 -0.149132 0)
(7.7895 -0.165886 0)
(7.77162 -0.141656 5.31672e-18)
(7.71723 -0.148619 0)
(7.24005 -0.0670778 0)
(7.13278 -0.0197965 -4.83838e-17)
(7.53987 -0.155866 1.15915e-17)
(7.8006 -0.0981105 0)
(7.7113 -0.138212 0)
(7.63789 -0.101373 -6.51611e-18)
(4.61355 -0.170266 -3.35903e-17)
(4.30914 -0.0589219 6.6444e-18)
(7.51727 -0.116116 0)
(7.32477 -0.134821 8.44227e-18)
(0.720234 -0.0617113 -6.16395e-17)
(7.00066 0.00823817 -1.35437e-16)
(6.85715 -0.0333556 6.80106e-17)
(0.733199 -0.0639863 0)
(0.683885 0.00881896 0)
(4.97796 -0.0799055 -6.95851e-19)
(6.96687 0.0893909 -2.92056e-17)
(6.66553 -0.0507474 2.50645e-18)
(8.17636 0.060582 -3.1112e-17)
(7.02645 0.111597 -1.34935e-17)
(7.01724 0.0958446 -7.29788e-19)
(7.02678 0.0659068 -2.55771e-18)
(6.98698 0.106422 2.07251e-17)
(6.98963 0.0844016 1.48072e-17)
(8.27042 -0.109055 8.97318e-17)
(6.97484 -0.112072 6.12233e-17)
(6.80484 -0.191604 -3.24827e-17)
(5.23598 0.0238989 -2.40527e-17)
(7.08945 0.0564958 2.11064e-17)
(7.05287 0.0769444 4.39254e-17)
(7.59649 0.140601 0)
(0.804983 -0.0047646 8.68322e-17)
(1.01095 -0.00114034 0)
(7.71352 0.172412 4.25611e-18)
(8.01426 -0.0449926 0)
(7.65542 0.441722 -1.06714e-17)
(7.62338 0.266266 -1.31323e-16)
(6.99996 0.0683452 0)
(6.82888 0.0828917 4.31749e-17)
(6.92815 0.067538 6.27467e-17)
(7.31703 0.0830667 2.87516e-16)
(7.15346 -0.151534 -4.09233e-17)
(6.95653 -0.21082 -2.32484e-17)
(7.1393 -0.0255307 3.85984e-17)
(7.3263 0.0174164 -1.77813e-17)
(6.48145 -0.152282 -5.35448e-17)
(6.85731 0.0619936 -1.22971e-16)
(7.24913 0.187869 2.32407e-17)
(7.22154 -0.175402 -3.44218e-17)
(7.28175 -0.151973 -1.3052e-18)
(7.20975 -0.125513 -1.21673e-17)
(7.28444 -0.105631 8.31789e-18)
(7.46728 -0.118253 0)
(7.60664 0.00333405 -8.95413e-17)
(8.23372 -0.0590111 -3.05564e-17)
(6.94212 0.0030106 2.991e-17)
(7.46834 -0.0735431 -2.6162e-18)
(7.00208 0.0455721 -6.6644e-17)
(7.31557 0.0469258 0)
(7.6006 -0.0198654 3.21068e-18)
(7.45301 -0.125869 -3.1863e-18)
(7.77448 0.147984 -1.92824e-17)
(6.99021 0.197594 -2.06844e-17)
(7.004 0.0197606 0)
(7.00206 0.0384649 5.46484e-17)
(7.38038 -0.0710459 -1.51385e-17)
(7.21319 -0.045088 1.41093e-17)
(6.87713 -0.0884343 3.46643e-17)
(7.0042 -0.0777665 0)
(6.60916 -0.232377 0)
(7.75206 -0.104268 -2.21078e-17)
(7.58713 -0.119747 1.17195e-17)
(7.81336 0.0860709 -1.08976e-17)
(8.00776 -0.0693361 5.95714e-17)
(2.32793 0.96356 -7.21704e-18)
(3.21762 -0.59619 7.19674e-18)
(5.82705 2.54731 -3.45643e-18)
(6.14531 2.64694 0)
(3.29212 -1.52338 1.22961e-17)
(3.21306 -1.50872 1.28077e-17)
(6.73388 -2.01594 2.74981e-18)
(6.61669 1.01797 1.6743e-17)
(7.47569 -1.7658 1.38907e-19)
(4.48345 -0.849125 -1.92272e-17)
(6.57956 1.53092 9.92976e-19)
(6.04199 -0.94515 -6.86796e-18)
(3.75052 -1.51138 0)
(7.08312 -0.247964 1.40268e-18)
(3.46545 -0.578634 -2.09522e-17)
(4.30579 -1.58292 -7.16563e-19)
(0.00404011 -0.107486 3.06674e-16)
(7.50752 -1.72343 1.64656e-19)
(3.92239 -1.03095 1.4627e-18)
(4.07291 -1.83914 1.49864e-18)
(3.62955 -1.44816 -2.04077e-19)
(4.33538 -1.60192 0)
(4.61767 -1.59658 1.72821e-18)
(5.13363 -1.73351 4.50933e-18)
(5.0695 -2.17348 1.91257e-18)
(5.23708 -2.1664 -1.25441e-18)
(6.17786 2.18807 -2.29531e-18)
(6.09118 2.34242 2.5299e-18)
(0.578642 -0.291512 0)
(3.42787 -1.47865 2.51838e-18)
(3.34495 -1.43645 -1.7789e-17)
(5.42824 -0.699472 7.64915e-18)
(5.89358 -1.00508 -5.60265e-18)
(6.69184 2.76194 3.32618e-19)
(5.48378 2.74232 2.48033e-19)
(4.16526 -2.77471 1.82848e-18)
(1.30755 0.476539 -1.57982e-17)
(5.81427 2.41056 -4.50006e-18)
(6.86398 -2.21572 0)
(6.94738 -2.14414 1.82916e-20)
(6.83152 1.64913 8.66112e-19)
(6.75607 1.65007 0)
(6.41685 1.8944 -3.04572e-18)
(6.47047 1.94275 0)
(6.4028 -0.15324 0)
(6.65834 1.74814 -2.00569e-18)
(6.71921 1.74314 1.73744e-18)
(3.48232 -0.7052 2.88302e-17)
(3.58989 -0.749719 2.83003e-17)
(5.43612 2.59321 -4.09746e-18)
(5.67592 2.86861 0)
(5.68757 2.83902 0)
(6.29334 -1.60971 2.37548e-18)
(6.24384 -1.82614 4.48382e-18)
(4.25399 -1.4636 0)
(4.14176 -1.35496 0)
(4.06171 -2.24988 2.14569e-18)
(5.80608 -0.832137 1.76285e-17)
(5.77054 -0.758975 -4.62118e-18)
(5.399 -0.663685 -1.47251e-17)
(3.64534 -1.67286 1.49079e-18)
(6.21246 2.08912 0)
(3.34049 -1.41318 -1.6088e-18)
(5.71565 2.83764 6.60281e-19)
(5.71441 2.99005 -8.00505e-19)
(3.46984 -1.37764 9.11857e-18)
(6.87142 -0.331979 0)
(3.98503 -2.34965 0)
(2.31928 -0.0803681 0)
(5.46334 -2.62106 1.39493e-18)
(5.42615 -2.56266 -6.94406e-19)
(4.05849 -2.44026 0)
(4.16469 -2.4366 -3.38216e-18)
(4.04283 -2.58409 1.9031e-18)
(3.89921 -1.41239 6.58199e-19)
(4.01434 -1.46219 -2.05245e-21)
(6.91147 -3.11898 -1.76648e-19)
(6.09101 2.18671 4.01807e-19)
(6.03998 2.28243 6.24645e-18)
(5.17108 -1.89647 2.60013e-18)
(6.11845 -2.64483 0)
(3.42542 -1.62137 -6.81343e-18)
(3.31876 -0.430629 0)
(5.9662 2.27044 -6.73127e-18)
(5.93094 2.32215 0)
(5.94197 2.17752 0)
(7.05002 0.220379 -1.15771e-17)
(4.14142 -1.39712 -1.86087e-18)
(4.22146 -1.43901 -1.95409e-18)
(6.62677 0.424577 -7.27583e-17)
(6.72992 0.322539 -4.56939e-17)
(4.05553 -0.192669 1.13898e-18)
(4.14171 0.0371325 -1.38761e-18)
(5.52211 -2.51904 0)
(4.41141 -2.14452 1.97359e-19)
(6.16271 2.49615 0)
(6.25785 2.41994 0)
(6.21212 2.39382 0)
(6.22353 2.51595 0)
(3.31985 -1.32603 -5.1573e-18)
(3.93924 -2.64929 0)
(3.27625 -0.607842 9.59861e-18)
(3.35511 -0.601126 -6.1602e-18)
(3.32465 -0.525345 -1.67816e-17)
(3.31206 -0.64805 -4.91578e-18)
(6.34906 2.27354 6.98914e-19)
(6.29305 2.23828 4.84327e-18)
(5.77964 -2.58955 1.32477e-18)
(5.71697 2.90313 6.272e-19)
(6.61205 1.41825 1.16277e-17)
(7.49537 -0.349431 0)
(6.38704 -1.34286 9.59194e-18)
(6.26814 -1.50196 2.19555e-18)
(6.23141 -1.19639 0)
(7.06387 -0.26321 -1.36676e-19)
(3.48644 -0.459635 0)
(3.50939 -0.243969 0)
(5.94064 -0.827366 0)
(0.376465 -0.103142 9.33296e-17)
(4.92916 -1.38947 -1.90518e-19)
(3.08534 -1.93766 -9.37712e-19)
(5.75364 -1.41223 0)
(3.30161 -0.754206 4.36887e-18)
(3.30208 -0.956398 9.43431e-18)
(5.67747 2.8889 -1.54604e-19)
(5.69629 2.89928 -2.50681e-20)
(5.65818 2.91062 2.24704e-19)
(6.26492 0.240681 -7.06945e-17)
(3.69422 -0.294459 2.84076e-17)
(3.5657 -0.441604 2.05083e-18)
(3.70837 -0.446246 -3.09021e-17)
(3.58399 -0.283486 -2.15298e-18)
(6.99226 0.146509 2.09223e-17)
(7.06922 -0.198834 -1.20348e-18)
(3.73232 -0.232339 -2.28677e-17)
(4.0086 -0.100201 -5.37232e-18)
(3.97715 -0.258801 9.90893e-19)
(3.87741 0.418158 0)
(4.07504 0.184171 2.40882e-17)
(3.24837 -1.31799 0)
(3.22753 -1.22268 -5.38215e-22)
(6.73105 -0.505507 5.20553e-18)
(6.75713 -0.321882 2.40321e-18)
(6.0706 2.40793 -6.59339e-19)
(6.122 2.48314 6.93539e-19)
(4.49165 -0.349966 1.11869e-17)
(6.31494 2.4199 0)
(6.35084 2.34896 0)
(6.35151 2.5125 0)
(5.78198 -1.91761 4.51137e-18)
(6.16215 -1.92722 0)
(3.13894 -0.579582 -6.21377e-18)
(5.60028 -1.50869 -4.30982e-18)
(5.24949 -1.63185 5.17685e-18)
(5.70613 -2.64097 0)
(5.55414 -2.60054 -1.50964e-18)
(5.69597 -2.59312 5.46877e-20)
(5.566 -2.66745 0)
(6.7539 0.231665 0)
(5.0696 -2.04353 -3.25729e-20)
(5.26068 -2.11369 1.12993e-18)
(5.23999 -1.9821 -1.3479e-18)
(6.56453 -0.405585 -3.06954e-17)
(6.59121 -0.50279 4.18031e-17)
(6.63454 -0.343299 -4.7693e-17)
(3.3481 -0.382738 5.32166e-18)
(3.43714 -0.291119 -5.42925e-18)
(3.3697 -0.286269 -2.74794e-18)
(3.42589 -0.39065 2.62451e-18)
(4.58557 -0.536114 -2.81537e-17)
(4.36567 -0.645874 9.88713e-19)
(4.48945 -0.660016 0)
(4.52148 -0.445383 1.71729e-17)
(6.8433 0.495329 1.95241e-17)
(3.02938 -2.19051 2.47276e-18)
(3.34082 -2.12128 9.96406e-19)
(3.63508 -1.909 5.99738e-20)
(3.50329 -1.95051 -4.67949e-18)
(3.33874 -0.261348 -4.81639e-18)
(3.3461 -0.148945 5.19327e-18)
(3.25088 -0.280179 0)
(4.32453 0.292599 0)
(4.06559 0.555221 8.44801e-18)
(4.52549 -0.371011 0)
(4.32573 -0.175018 0)
(4.25447 -0.353797 0)
(4.53989 -0.24671 0)
(6.93598 -2.01263 6.15942e-20)
(6.93714 -2.06018 0)
(4.59223 -1.96818 1.33753e-18)
(4.72024 -2.06011 0)
(4.84307 -2.00273 1.39174e-19)
(4.50217 -1.99331 -3.82107e-18)
(4.187 0.184983 0)
(4.55403 -1.66441 -6.22702e-18)
(4.25312 -1.77761 0)
(4.68316 1.00828 -5.13197e-19)
(4.2498 0.140011 0)
(3.9286 -0.507009 -2.24009e-17)
(4.16353 -0.364676 0)
(4.0133 -0.323772 0)
(4.14022 -0.506443 2.71223e-17)
(3.63263 -1.24387 3.87646e-17)
(3.58603 -1.37488 -1.38591e-17)
(6.94198 0.114098 -4.55664e-18)
(6.66075 -0.0797807 7.77046e-17)
(6.6278 -0.175303 0)
(6.58426 -0.143754 7.72677e-17)
(6.69616 -0.152089 0)
(3.57255 -1.14233 -1.67973e-17)
(3.6423 -1.00256 0)
(3.45597 -1.10784 0)
(4.6586 -1.18351 -2.2418e-17)
(4.82461 -0.828995 -1.01653e-17)
(4.6422 -0.92429 1.04818e-17)
(4.75273 -2.19385 1.07058e-18)
(4.72738 -2.12813 1.8064e-18)
(4.88988 -2.14484 -1.04634e-18)
(4.61385 -2.15172 -2.30726e-18)
(5.62652 -1.87886 -5.96479e-18)
(5.30714 -1.75302 -4.09631e-18)
(5.62702 -1.79206 1.2993e-18)
(5.28949 -1.85015 -3.01833e-18)
(4.15428 -1.53206 0)
(4.17811 -1.54212 0)
(3.99996 -1.52556 -1.80079e-19)
(5.44847 2.7584 1.25089e-19)
(7.3839 -0.156225 -1.72348e-17)
(7.20104 -0.172889 1.84592e-18)
(7.28077 -0.168903 1.07646e-17)
(7.30385 -0.153799 -7.06396e-18)
(5.4731 2.89993 -6.25245e-19)
(5.40733 -0.260834 4.59633e-17)
(5.8598 2.43495 -2.28399e-18)
(5.85668 2.50388 -1.08757e-18)
(5.9322 2.39101 1.90082e-18)
(3.64914 -1.49495 0)
(3.58745 -1.64987 0)
(3.82184 -1.50166 2.39412e-17)
(5.46788 -0.872852 3.39024e-18)
(3.76157 0.200183 0)
(3.92573 0.197378 2.53358e-19)
(3.85825 0.127235 0)
(3.8358 0.318534 -9.98052e-18)
(6.93588 0.37688 2.59267e-17)
(3.31504 -1.04328 2.73308e-18)
(3.23354 -1.16484 -6.20757e-18)
(3.23435 -1.09434 3.28163e-18)
(3.31808 -1.13951 0)
(7.98977 0.179699 -4.80632e-17)
(0.214429 -0.0165946 2.51341e-16)
(7.70791 -0.268779 3.81708e-17)
(8.02778 -0.0356877 0)
(1.02312 -0.0858543 -4.34735e-17)
(7.06431 0.25514 -7.62694e-18)
(4.63588 0.0600598 -5.14604e-17)
(6.99702 0.0180563 4.34482e-17)
(7.00708 0.0927594 -2.73755e-17)
(7.00633 0.0708742 -5.45712e-17)
(7.95874 -0.185844 0)
(4.21766 -0.322052 -3.6953e-18)
(6.78377 0.235752 0)
(6.82563 0.195793 1.72014e-17)
(5.9381 -0.0832783 0)
(6.39057 0.124251 -8.12422e-17)
(6.28835 0.159101 4.40759e-17)
(6.57906 0.0362556 2.27626e-17)
(6.51235 0.0707156 0)
(4.20714 -0.3056 5.44743e-18)
(6.92968 0.148865 -4.24649e-17)
(6.90869 0.177712 -4.64105e-17)
(5.56014 -0.276048 -2.82461e-17)
(6.95912 0.255986 1.90557e-17)
(6.94819 0.302232 1.23268e-17)
(2.66509 0.377962 2.19282e-17)
(7.00834 0.0646306 4.82419e-17)
(7.62692 0.305798 -1.63027e-17)
(-0.180206 -0.089184 -2.06654e-16)
(6.98924 0.125356 -4.92423e-18)
(6.97289 0.197754 3.03896e-17)
(7.16509 0.25112 0)
(5.6019 -0.424109 -5.5289e-17)
(7.43211 -0.169156 8.55463e-17)
(4.12408 -0.301165 2.66213e-18)
(4.25128 -0.292787 -1.23036e-17)
(6.87419 0.789552 1.52719e-17)
(7.01083 0.101864 3.63095e-17)
(7.36562 -0.20718 -2.25803e-17)
(7.41504 -0.217575 -7.7938e-17)
(7.37841 -0.262087 2.56275e-17)
(7.6343 -0.161198 3.79995e-17)
(6.68568 -0.367954 5.1945e-18)
(6.67829 -0.459829 -7.12766e-18)
(7.11894 -0.139488 9.63984e-19)
(7.10542 -0.171375 7.66936e-18)
(7.03859 0.182496 -3.79248e-18)
(6.48984 -0.299494 -5.53286e-17)
(6.8052 -0.36021 0)
(6.79072 -0.462993 0)
(6.80253 -0.105503 -8.43521e-18)
(6.68471 -0.0964672 0)
(-0.141518 -0.0657138 0)
(2.98765 0.29222 1.26511e-17)
(7.57947 -0.122979 2.93017e-17)
(7.66037 -0.100938 5.30917e-18)
(7.21376 0.357351 1.50239e-19)
(7.00489 -0.158728 0)
(7.08647 -0.137409 0)
(6.73849 0.180158 -1.57939e-17)
(7.57058 -0.301665 0)
(7.0031 0.059171 -2.39587e-17)
(6.99864 0.0736357 8.68892e-17)
(7.00041 0.154742 2.32724e-18)
(6.08484 -1.41048 7.48687e-18)
(6.10461 -1.23551 -6.09426e-18)
(5.97069 -1.17801 5.30385e-18)
(5.80936 -0.0180647 3.46065e-17)
(7.00873 0.130882 0)
(4.93729 -0.106676 -2.14114e-16)
(7.4133 -0.282652 0)
(6.49033 -0.0341184 -2.63951e-17)
(6.20404 -0.0427106 1.31936e-17)
(6.08542 -0.0474116 1.21967e-17)
(7.0854 0.292815 -1.64395e-17)
(2.23203 -0.657015 0)
(7.48719 -0.298942 7.27304e-18)
(7.44832 -0.274096 -3.46903e-17)
(4.94467 -0.278122 0)
(5.12605 -0.261974 0)
(3.18304 -1.07163 9.55251e-20)
(7.74798 0.207542 -8.00825e-18)
(7.22271 0.215838 -3.91015e-17)
(7.25244 -0.0239579 0)
(8.31154 -0.0403115 -9.12167e-17)
(7.1291 0.326871 0)
(7.09974 0.288864 8.2307e-18)
(6.95133 0.162779 -3.25328e-17)
(4.9399 -0.624421 0)
(8.09454 0.101264 -3.42469e-17)
(7.87524 0.177891 -7.19443e-17)
(6.09044 -0.054041 4.26415e-17)
(5.93892 0.0011243 -5.00216e-17)
(7.33242 0.0809189 -7.20463e-18)
(6.28843 2.06708 1.93262e-18)
(6.33271 1.95222 -2.11124e-18)
(5.89612 -0.139196 -2.22892e-17)
(7.00039 0.0177609 0)
(7.01443 -0.257098 -1.38553e-18)
(7.0899 -0.200621 -1.33318e-18)
(7.03989 -0.223263 0)
(8.08077 -0.0109071 1.09229e-17)
(8.00136 0.0447863 -2.17437e-17)
(4.13886 0.297157 0)
(4.02808 0.442676 1.83522e-17)
(6.33319 2.11837 3.47771e-18)
(6.431 2.06016 -3.21248e-18)
(6.84638 0.0200641 1.27185e-16)
(6.64165 0.0148635 4.64982e-17)
(0.0472684 -0.0037106 2.80619e-17)
(5.14029 -0.0497385 2.18301e-17)
(7.05673 -0.0129119 -8.64543e-17)
(6.96663 0.110898 -3.70079e-17)
(6.90006 0.126424 6.11372e-17)
(6.85525 0.15459 -5.23757e-17)
(7.00868 0.0468785 0)
(7.00174 0.0374879 -1.26772e-17)
(6.97219 -0.287924 1.3909e-18)
(6.98676 -0.248924 -5.45282e-18)
(7.05411 -0.213648 0)
(3.84864 -1.41153 -2.62959e-17)
(3.75275 -1.2512 -7.4559e-18)
(3.8374 -1.12532 0)
(6.90236 0.1441 -6.42856e-17)
(6.86677 0.203447 -3.56951e-17)
(6.88813 0.175111 4.3532e-17)
(6.84002 0.215588 5.81988e-17)
(7.75084 0.325786 8.66326e-17)
(7.71303 0.281932 -3.74326e-17)
(7.76978 0.21329 0)
(6.64665 -0.0652197 3.27166e-17)
(3.32892 -1.6442 -6.67205e-18)
(6.66941 0.0669717 -2.28206e-17)
(6.62978 0.10813 3.92167e-18)
(6.99915 0.0340437 9.79084e-17)
(7.31729 -0.101206 1.21918e-16)
(3.85606 -1.67333 0)
(3.67993 -1.76711 4.29028e-18)
(5.79043 -0.142187 -8.07301e-17)
(5.63067 -0.168035 3.38348e-17)
(7.4314 0.0907067 0)
(6.89633 -0.0872954 5.9109e-17)
(7.57605 0.070475 -4.02516e-17)
(7.39322 -0.167669 0)
(6.51259 -1.7893 5.07305e-18)
(6.50645 -1.65696 -5.29072e-18)
(5.23553 -0.0701857 0)
(5.39262 -0.116138 -4.40792e-17)
(5.53152 -0.0460246 2.99465e-17)
(4.41679 0.118997 0)
(4.57338 0.0819171 1.9979e-17)
(6.87503 0.233676 -1.5047e-17)
(6.86252 0.270162 -1.39861e-17)
(6.83624 0.281163 0)
(7.95565 -0.173437 -6.61989e-17)
(7.05584 0.00546154 0)
(6.96999 -0.0095645 -4.0344e-17)
(6.58407 -0.0336758 -1.4346e-16)
(6.44223 -0.111718 0)
(6.49787 -0.0375198 8.60933e-18)
(7.09435 0.223381 1.11149e-17)
(7.09597 0.257011 2.22867e-18)
(6.33893 -0.10103 0)
(6.31249 -0.0168128 -2.14628e-17)
(6.20898 0.023045 -9.98266e-17)
(7.01341 0.026691 0)
(7.53758 -0.277378 0)
(7.66248 -0.241485 0)
(7.66859 -0.220227 0)
(0.290235 -0.0198233 -8.79949e-17)
(2.76368 0.298765 -6.3389e-18)
(7.11422 -0.19158 0)
(7.07198 -0.227444 7.92726e-19)
(7.05243 -0.217707 -3.41971e-19)
(3.85794 -0.834478 5.60071e-18)
(3.77954 -0.988221 0)
(7.70838 -0.129276 -3.97412e-18)
(7.95924 0.0614463 5.77153e-17)
(7.70104 0.13645 0)
(8.28264 0.255559 6.95488e-19)
(8.20959 0.290074 0)
(6.08094 -0.0989367 9.30032e-20)
(5.39435 -3.16995 1.38722e-20)
(6.67354 0.482098 -6.98823e-17)
(3.55695 -0.688747 1.30752e-18)
(6.35277 -0.0112165 -2.73529e-20)
(3.17948 0.348268 6.48779e-18)
(3.4804 -1.50852 0)
(5.34575 2.92126 6.51465e-19)
(5.77073 -2.96517 0)
(5.78585 -3.02844 0)
(6.90055 -2.61979 0)
(5.68891 3.02225 0)
(5.69104 3.00432 4.7498e-20)
(5.81023 3.03973 0)
(5.82868 3.01923 -2.05679e-21)
(6.24057 -0.45323 0)
(7.3643 -0.434484 -1.82381e-19)
(7.01536 -2.38612 0)
(3.78172 -1.78672 8.1667e-19)
(4.24243 -0.991953 1.43297e-19)
(6.43487 -2.38923 3.29685e-20)
(6.46433 -2.42855 -4.23519e-20)
(6.4382 -2.75335 -1.26455e-19)
(6.46003 -2.7706 0)
(6.60594 -0.0516162 0)
(7.32184 0.290553 0)
(1.12603 -1.19957 3.52401e-17)
(3.05802 -0.0369714 -2.21582e-18)
(1.58864 -1.54206 -5.22451e-18)
(1.39078 -1.43963 0)
(5.51934 2.9043 1.44031e-19)
(6.95171 -0.163055 0)
(6.9329 -0.130489 0)
(5.22101 -0.417286 0)
(3.31989 -1.98257 0)
(7.01457 -0.366085 -5.5207e-21)
(2.70699 -0.960158 -4.85716e-18)
(6.63785 0.224776 -1.27282e-20)
(3.29164 -1.46212 -9.24468e-19)
(6.21415 -0.445417 -8.08371e-23)
(4.31799 -0.0672846 0)
(4.26229 -0.0896933 0)
(5.5025 2.92064 0)
(7.45115 -0.487703 -1.95997e-19)
(5.93353 -2.89853 7.05387e-19)
(2.96937 -2.76677 1.46304e-18)
(3.14778 -2.54533 4.15064e-20)
(6.6285 -0.0513598 0)
(7.89108 -0.968952 0)
(5.31606 2.92298 -1.67466e-18)
(5.29941 2.8886 0)
(6.27735 3.24545 2.05215e-19)
(6.80968 -0.644306 1.22175e-17)
(7.33716 -0.230022 0)
(6.81862 -0.049032 8.72338e-21)
(6.81745 -0.719943 1.08865e-17)
(5.24923 3.12408 -2.89522e-20)
(6.87097 -2.34509 -6.39955e-20)
(6.86732 -2.30725 8.10091e-20)
(6.70213 -2.56627 5.91229e-19)
(6.71772 -2.54179 2.14114e-18)
(6.97317 -0.248599 -7.81058e-21)
(6.99157 -0.292388 -1.69829e-21)
(7.91779 -0.680589 6.82223e-19)
(5.71586 3.01467 0)
(5.69888 3.00217 -4.37451e-20)
(7.49731 0.592989 8.77607e-19)
(6.37538 -0.199688 2.29854e-20)
(4.59629 -3.30114 2.0645e-18)
(5.62241 -3.12058 -2.21144e-18)
(5.21678 2.82762 -8.14745e-20)
(6.57489 -2.52336 5.5645e-21)
(7.31364 -0.51978 0)
(6.10135 -2.47129 4.37319e-18)
(5.73211 0.779306 -5.34564e-18)
(6.51616 -1.90489 0)
(6.33861 -1.04515 1.69281e-17)
(8.00097 -0.274002 1.93105e-20)
(4.03579 2.52558 -1.3313e-18)
(5.38371 2.32661 1.97871e-18)
(5.36285 2.26618 -1.94107e-18)
(6.74482 0.113523 0)
(3.81689 -1.51939 -1.72282e-19)
(3.94387 -1.52945 -1.57435e-19)
(5.71996 3.0077 3.11619e-19)
(6.48514 -2.50598 2.71737e-20)
(4.95501 1.09118 -9.36743e-20)
(3.17579 -0.195312 6.28769e-18)
(3.24266 -0.0395997 1.11236e-17)
(7.2366 -1.76768 1.48233e-19)
(6.22395 -0.266555 7.81765e-20)
(6.23255 -0.239286 -1.24984e-19)
(5.1109 -3.37261 -9.61785e-19)
(5.00877 -3.46457 -2.19019e-20)
(7.61362 -0.309272 1.55582e-19)
(7.59537 -0.257643 1.00703e-19)
(7.14841 -2.0084 0)
(6.79842 -0.460289 -3.07151e-20)
(4.62383 0.503881 5.78246e-19)
(4.63544 0.286602 8.02834e-19)
(5.74671 2.96365 -3.71319e-20)
(6.82946 -0.346264 8.99074e-21)
(3.8884 -3.63915 -1.37461e-18)
(5.37578 3.02229 8.47604e-19)
(5.42374 2.97888 1.6004e-19)
(4.85809 -1.26684 -7.74756e-19)
(5.18871 -1.27157 -3.6835e-19)
(7.55598 -1.31891 0)
(6.57375 -0.473403 8.48205e-20)
(7.25796 -0.0729379 0)
(7.20958 -0.147339 6.0313e-20)
(6.44186 -0.414873 -1.19878e-19)
(4.5271 -1.63686 0)
(4.43167 -1.6221 0)
(6.32233 -0.251896 1.68957e-20)
(7.20519 -0.582578 -3.92119e-20)
(6.92398 -2.51013 0)
(5.8417 -0.0957902 0)
(7.44834 -3.69866 0)
(5.60201 -3.21514 4.88499e-19)
(5.59223 -3.28458 8.51376e-19)
(4.73766 -1.0136 9.57321e-19)
(4.79295 -1.05716 -8.90249e-19)
(6.13734 -0.899011 -3.61333e-19)
(8.08368 -4.49055 8.30036e-19)
(7.71726 -2.83212 7.69409e-20)
(1.11677 -2.98975 5.03041e-18)
(7.75647 -3.87568 2.99624e-19)
(5.80826 2.93227 -7.27378e-20)
(6.02454 2.71538 5.88235e-19)
(7.27587 -1.16941 -1.41525e-19)
(7.34403 -1.14664 6.04902e-20)
(5.24201 2.71509 5.33114e-20)
(3.86639 -1.49871 6.84775e-19)
(4.0457 -2.46295 3.89166e-18)
(6.42859 -0.022425 0)
(8.67532 -2.09879 1.59015e-18)
(6.97166 -0.0197645 3.15445e-20)
(7.00382 -1.62072 0)
(6.57877 -0.395141 3.96436e-20)
(6.11116 1.86752 8.26134e-19)
(6.06922 1.81402 -1.67169e-18)
(7.68448 -0.915801 1.9592e-19)
(7.65521 -0.848843 -3.49219e-19)
(6.23559 -2.70541 -1.80889e-19)
(4.4033 -0.573057 -4.86341e-19)
(5.62864 2.99362 -2.14658e-19)
(5.46866 2.94631 1.06683e-22)
(6.75433 0.0533816 -3.41772e-21)
(6.08558 -0.180559 8.75961e-20)
(6.74477 -0.420983 0)
(2.39499 -1.74527 0)
(3.42735 -1.49588 0)
(6.78428 0.953783 2.73453e-20)
(7.48346 -1.20928 1.17193e-19)
(7.09568 -2.01312 -1.00351e-19)
(6.99235 -2.05859 0)
(5.159 -1.09486 -8.93021e-19)
(5.24631 -1.09377 0)
(3.41388 -1.98806 -1.34202e-18)
(3.48231 -2.02189 -1.85538e-18)
(6.78127 -1.56359 0)
(7.75164 -0.624764 0)
(7.73143 -0.586538 0)
(6.6172 -2.71907 0)
(6.51527 -2.75465 0)
(5.52398 2.95429 6.51132e-20)
(5.5043 2.92641 4.38983e-20)
(5.50262 2.93326 -1.92422e-19)
(5.65725 2.98824 -2.33533e-19)
(7.26564 -1.87932 1.57889e-19)
(7.17559 -1.95692 6.68188e-20)
(5.75863 2.99091 8.55884e-20)
(5.92474 -0.135598 0)
(6.05263 -0.192115 1.72616e-19)
(6.06385 -0.234995 8.51894e-20)
(6.84897 -0.173562 -7.32707e-21)
(6.90364 -0.13976 -6.7017e-21)
(7.47653 -2.39005 2.31426e-18)
(7.45299 -2.29292 0)
(5.81004 2.33886 1.18008e-22)
(7.05155 -1.5359 6.67371e-20)
(7.04379 -1.60826 0)
(3.22587 0.4484 -6.82466e-18)
(3.18954 0.412115 7.7602e-18)
(3.22353 0.554958 -3.44728e-18)
(6.23019 -2.63413 8.106e-19)
(6.32164 -1.10558 0)
(6.5146 -1.51494 0)
(6.09678 -0.587676 2.12914e-19)
(6.20473 -2.34466 0)
(4.59396 -0.628939 -5.0059e-20)
(4.7118 -0.729791 6.27584e-19)
(6.47162 -2.18615 2.9619e-18)
(7.22842 -1.17453 -1.68291e-19)
(5.70892 3.05559 -2.47159e-19)
(6.3543 0.948141 -3.17245e-20)
(7.78916 -1.16007 0)
(7.8181 -1.03841 0)
(6.3037 -0.697523 5.00604e-21)
(7.16808 -2.26307 2.46879e-19)
(5.7511 -3.26745 -1.81719e-19)
(6.45771 1.4065 8.01201e-19)
(7.23544 -0.161051 0)
(7.2684 -0.124102 0)
(5.15924 -3.13836 5.92968e-19)
(5.33741 -3.05559 0)
(7.03504 -4.59087 -5.82224e-19)
(4.97775 -0.901095 0)
(4.80471 -1.23974 1.2853e-19)
(3.44608 -3.06857 0)
(5.65494 3.01934 1.87467e-19)
(5.40651 -3.42146 0)
(5.65575 3.02818 8.98268e-20)
(5.63199 3.01361 -2.10198e-19)
(5.7067 -3.05059 1.99226e-19)
(5.55197 -3.078 0)
(7.45597 -1.51267 0)
(7.42631 -1.55472 0)
(7.11174 0.449482 0)
(5.66644 3.03428 -9.37144e-20)
(5.68724 3.04202 2.5909e-19)
(5.63521 3.01834 -1.23208e-19)
(5.6261 3.01234 1.05362e-19)
(5.64467 3.02355 1.53506e-21)
(7.03028 -0.279542 -2.89007e-20)
(5.25963 -0.448475 0)
(8.63488 -2.15788 6.63502e-19)
(5.51262 2.90386 1.29913e-19)
(5.5953 2.84838 -7.9681e-19)
(5.59966 2.81877 0)
(4.55484 -3.72716 -4.41597e-19)
(4.60418 -3.83279 4.5159e-19)
(6.54491 -0.108645 -2.32652e-22)
(4.07597 -0.544789 -3.2374e-20)
(6.36609 -1.07128 -9.45284e-18)
(6.0826 -0.907989 9.7932e-18)
(6.44722 -1.20167 6.54357e-19)
(6.22628 -0.16807 8.76637e-20)
(3.50001 -0.747353 -2.00855e-18)
(5.79772 3.08332 -1.50227e-19)
(5.58384 2.99975 4.16564e-20)
(7.83152 -4.44447 -9.95947e-19)
(4.60959 0.0722152 0)
(5.45151 -1.27495 -5.1926e-19)
(5.8653 3.03469 5.07297e-19)
(5.84535 3.03158 -6.83766e-19)
(5.86512 3.06757 -1.32237e-19)
(6.6808 -2.27164 2.71151e-21)
(7.0785 -1.81019 0)
(7.76135 -4.21558 9.17187e-19)
(6.91765 -1.82806 3.03444e-20)
(6.84477 -1.88806 -3.84914e-21)
(7.16825 -0.175637 3.75313e-20)
(6.1225 -2.71987 -7.48507e-21)
(5.94583 -2.80337 0)
(3.86058 -1.65771 1.30986e-18)
(7.27896 -4.47044 2.38993e-19)
(6.58435 -3.0896 1.14665e-19)
(5.8384 -3.11005 6.97363e-19)
(7.88926 -1.61203 -4.79054e-20)
(3.13405 -2.35906 -1.14834e-18)
(3.23731 -2.42768 6.15677e-22)
(1.23247 -1.04401 1.12888e-17)
(5.96624 -2.75836 2.48016e-19)
(5.89433 -2.74342 0)
(6.05637 -2.71411 -2.89683e-19)
(3.0759 0.54712 -9.66421e-18)
(4.69481 -0.426738 -2.06469e-19)
(4.69946 -0.357233 1.03746e-18)
(6.5304 -2.01855 0)
(5.86605 -2.8296 6.31919e-19)
(7.6504 -1.28018 -8.00851e-20)
(7.70793 -1.22776 -9.22219e-20)
(6.54695 -1.19318 -8.82622e-20)
(6.98742 -0.0927555 1.81008e-20)
(4.99465 2.64659 -8.11378e-19)
(3.40918 0.365585 0)
(6.91347 -2.07375 0)
(6.41824 1.48753 5.38676e-18)
(6.77944 -2.36743 1.3695e-21)
(5.39073 2.61745 2.18047e-18)
(5.32692 2.71082 -1.14798e-18)
(6.73868 -1.57519 0)
(6.73293 -1.63625 1.80029e-20)
(6.68783 -1.66623 -4.17093e-20)
(7.24572 -2.72779 7.68551e-20)
(2.52992 -1.23644 -2.47758e-18)
(6.47695 2.85229 -1.01598e-19)
(6.41939 3.01435 1.53769e-19)
(2.04283 -0.912283 -9.44385e-18)
(6.27987 3.01474 9.37864e-19)
(3.7749 -2.20663 0)
(5.44035 2.885 3.31838e-19)
(5.40232 2.91498 -3.26819e-19)
(6.47216 -2.68307 -4.06698e-19)
(5.65654 -1.26867 -6.20042e-19)
(5.42537 3.00276 0)
(5.40422 3.02584 -3.39619e-19)
(3.77036 -0.945249 -7.58174e-19)
(3.70604 -4.37141 1.24525e-18)
(7.21793 -0.244904 1.59246e-19)
(4.99123 1.82413 -4.19901e-20)
(4.2411 -3.48377 7.91525e-19)
(4.13865 -3.67595 -1.87093e-18)
(5.5594 2.90936 -1.27212e-19)
(6.4762 -1.2736 0)
(3.95626 -1.27598 -8.75564e-20)
(4.07005 -1.3378 0)
(3.95287 -1.3355 8.19723e-20)
(4.62173 0.594187 -7.40613e-19)
(6.58637 -2.01521 -6.28801e-20)
(6.66281 -1.98229 0)
(6.79861 -1.96483 1.41051e-21)
(6.80764 -1.90335 3.8834e-21)
(7.1762 -1.90927 5.38218e-20)
(7.22407 -1.86472 -1.7642e-19)
(7.62672 -1.25694 -7.85666e-20)
(7.57444 -1.2728 7.9356e-20)
(7.63265 -1.17224 0)
(4.23275 -0.573765 -2.38385e-21)
(4.1343 -0.594799 -1.16458e-18)
(3.59281 -0.577877 3.3927e-18)
(6.81631 -1.72627 4.54397e-22)
(6.80509 -1.79085 0)
(6.26019 -2.75937 2.26652e-19)
(6.38701 -2.73094 -2.1642e-19)
(4.91241 -2.74093 -3.67673e-18)
(5.00668 -2.80414 1.84466e-18)
(3.93917 -3.9398 -9.8629e-19)
(3.84208 -4.04857 -8.64386e-19)
(7.07942 -0.043746 1.03311e-19)
(4.05844 -2.12558 -1.978e-18)
(3.89727 -2.09937 1.94193e-18)
(6.71511 -0.583965 -2.44466e-17)