/*--------------------------------*- C++ -*----------------------------------*\
  =========                 |
  \\      /  F ield         | OpenFOAM: The Open Source CFD Toolbox
   \\    /   O peration     | Website:  https://openfoam.org
    \\  /    A nd           | Version:  6
     \\/     M anipulation  |
\*---------------------------------------------------------------------------*/
FoamFile
{
    version     2.0;
    format      ascii;
    class       volScalarField;
    location    "1100";
    object      nut;
}
// * * * * * * * * * * * * * * * * * * * * * * * * * * * * * * * * * * * * * //

dimensions      [0 2 -1 0 0 0 0];

internalField   nonuniform List<scalar> 
29874
(
0.251724
0.207361
0.121571
0.155393
0.178895
0.241633
0.217169
0.141058
0.152903
0.141856
0.268164
0.258142
0.182149
0.263028
0.266161
0.28327
0.175404
0.277065
0.118827
0.141927
0.14066
0.143784
0.140532
0.1534
0.144485
0.177055
0.219607
0.143851
0.233529
0.233708
0.229433
0.195391
0.194659
0.220699
0.151469
0.158011
0.142243
0.162896
0.164085
0.200384
0.139903
0.139655
0.145185
0.13309
0.19124
0.160681
0.1781
0.24507
0.239114
0.239912
0.193855
0.291139
0.267545
0.27899
0.19923
0.192583
0.134862
0.169838
0.166088
0.172032
0.163766
0.149104
0.147478
0.167411
0.123467
0.189823
0.238455
0.176418
0.262211
0.283462
0.154935
0.148351
0.144379
0.109379
0.284924
0.23029
0.231743
0.226089
0.182962
0.164741
0.19234
0.110972
0.138314
0.146661
0.0953653
0.109324
0.148786
0.140872
0.187964
0.163112
0.0701422
0.139492
0.138604
0.145224
0.13441
0.138235
0.135903
0.098212
0.0611736
0.105405
0.150878
0.138565
0.138789
0.167678
0.211666
0.0632625
0.0755298
0.154624
0.158885
0.144383
0.0747663
0.195751
0.205135
0.138513
0.138515
0.138781
0.134774
0.150713
0.000242967
0.142239
0.139776
0.178344
0.129959
0.115245
0.136529
0.138606
0.153012
0.146941
0.142069
0.135008
0.140009
0.137062
0.150466
0.14321
0.143568
0.143277
0.146252
0.134793
0.143819
0.233614
0.200299
0.171798
0.278241
0.169539
0.149492
0.152049
0.170744
0.18288
0.139763
0.27649
0.246674
0.240699
0.294448
0.121416
0.135489
0.140102
0.150209
0.16192
0.183616
0.185147
0.166884
0.181104
0.222269
0.163084
0.216031
0.190149
0.171905
0.150198
0.149325
0.15436
0.194052
0.17303
0.164463
0.0922767
0.0807918
0.154997
0.148055
0.00032655
0.147792
0.145006
0.00026774
0.000243774
0.160469
0.143072
0.140956
0.158864
0.13831
0.13865
0.140699
0.138603
0.138481
0.190377
0.144891
0.139422
0.170668
0.143268
0.141859
0.154947
0.00051281
0.00050524
0.152228
0.150748
0.176747
0.163708
0.141023
0.138936
0.140607
0.21656
0.146697
0.139999
0.142437
0.145683
0.133803
0.141664
0.143001
0.146131
0.145608
0.14251
0.146273
0.152949
0.235791
0.19735
0.19786
0.162322
0.139685
0.146001
0.151421
0.149339
0.161397
0.139072
0.139974
0.140012
0.137602
0.130214
0.144485
0.146527
0.135263
0.170833
0.159425
0.196031
0.19873
0.00669388
0.0420769
0.101987
0.107582
0.0378339
0.035735
0.0607864
0.13171
0.0463326
0.0823753
0.127004
0.0848742
0.0438478
0.103737
0.051409
0.0500843
0.000516207
0.0449556
0.0491292
0.044204
0.0433277
0.0504404
0.0585441
0.0628552
0.0580802
0.0608842
0.115502
0.111958
0.000330769
0.0427115
0.0404753
0.102817
0.0796146
0.108481
0.0803037
0.0274698
0.000782514
0.10403
0.0742421
0.0704169
0.126614
0.126468
0.121932
0.121649
0.0707222
0.125188
0.125346
0.0522449
0.0557964
0.0848523
0.0887439
0.0901037
0.0593183
0.0626459
0.053035
0.0525929
0.0363895
0.0931645
0.0948302
0.104598
0.0352559
0.117341
0.0323273
0.0918117
0.0895744
0.0455543
0.127691
0.0314624
0.00395238
0.0541987
0.0552142
0.0312188
0.0340767
0.0281029
0.0482345
0.0493461
0.0758946
0.114191
0.112023
0.0623695
0.062855
0.0406109
0.0458064
0.110553
0.108501
0.111218
0.138263
0.0523764
0.0528655
0.135999
0.136457
0.0437831
0.0420799
0.0585544
0.0472944
0.111356
0.112798
0.112964
0.111329
0.0411974
0.0243126
0.0441595
0.0480001
0.0461829
0.0459073
0.116316
0.116408
0.0601951
0.0908912
0.128247
0.124273
0.063541
0.0604077
0.0708126
0.1057
0.052904
0.0532768
0.108306
0.00031574
0.0617461
0.0278647
0.0617592
0.045278
0.0441174
0.0886931
0.0895758
0.087274
0.13224
0.0605445
0.0561108
0.0596651
0.0563613
0.139518
0.131261
0.0627829
0.0705431
0.068736
0.0629455
0.0726762
0.0395825
0.0396019
0.120538
0.131265
0.110547
0.110465
0.12325
0.113565
0.115133
0.112317
0.0655652
0.0646843
0.0383061
0.0628741
0.0635582
0.0566628
0.055613
0.0578082
0.0541357
0.138043
0.0604697
0.061908
0.0627481
0.126754
0.122655
0.130419
0.047685
0.0505886
0.0476457
0.0501721
0.089667
0.0821461
0.085396
0.0870643
0.136781
0.0215677
0.0276589
0.0414831
0.0376817
0.0456541
0.0452912
0.0427542
0.0816548
0.0698303
0.0864176
0.0828457
0.0810596
0.0886402
0.0694452
0.0696633
0.0545724
0.0542903
0.0574145
0.0518577
0.0407268
0.0568894
0.0502508
0.0395324
0.0435243
0.0690696
0.0768524
0.0709714
0.0738392
0.0522058
0.0488009
0.139372
0.140147
0.138059
0.136758
0.140535
0.0519224
0.0551614
0.0491572
0.0795311
0.0900686
0.0844827
0.051995
0.0538484
0.0555632
0.0509393
0.0651353
0.0639276
0.064899
0.0636353
0.0488258
0.0488616
0.0463181
0.0777483
0.150956
0.144028
0.147583
0.148119
0.0660423
0.11355
0.105029
0.103999
0.107354
0.0486055
0.0448073
0.0522964
0.0822492
0.0610812
0.0673217
0.0646362
0.0634043
0.13816
0.0433793
0.0408194
0.0405856
0.0432739
0.165915
0.000238885
0.137271
0.193925
0.000507288
0.138566
0.16799
0.13951
0.139493
0.13953
0.170183
0.122225
0.138013
0.13877
0.110003
0.134649
0.132895
0.138425
0.136595
0.125754
0.138472
0.138111
0.116295
0.138668
0.138426
0.00354061
0.139141
0.142236
0.000193169
0.138393
0.138784
0.140445
0.115203
0.140033
0.124789
0.125823
0.135145
0.139314
0.132025
0.134262
0.127108
0.152304
0.128672
0.124266
0.133731
0.129386
0.138822
0.130532
0.127509
0.121656
0.0992171
0.0982871
0.00019974
0.00534567
0.157442
0.166272
0.138515
0.10336
0.106377
0.13928
0.133977
0.139802
0.139592
0.1383
0.0613787
0.0672138
0.0681807
0.123614
0.139193
0.223999
0.126369
0.105638
0.101073
0.102225
0.138673
0.00901882
0.131238
0.132631
0.100581
0.106543
0.0389761
0.148855
0.140513
0.235258
0.203114
0.138311
0.138529
0.138461
0.0955691
0.158275
0.146406
0.128356
0.126539
0.145537
0.118731
0.120464
0.11109
0.139816
0.12715
0.13724
0.133786
0.158747
0.147708
0.0748308
0.0693672
0.118386
0.119845
0.143309
0.140205
0.000741187
0.149708
0.181871
0.142208
0.140335
0.139977
0.139293
0.139825
0.126717
0.134397
0.139165
0.0557852
0.0556574
0.0594457
0.139061
0.138154
0.138362
0.137955
0.139745
0.14338
0.147654
0.113656
0.0375382
0.139462
0.138095
0.145571
0.153664
0.049733
0.0451042
0.121939
0.118873
0.161213
0.218812
0.159276
0.177538
0.0589197
0.0582303
0.110507
0.114325
0.1177
0.0851007
0.0912897
0.137791
0.137613
0.13734
0.170653
0.141026
0.138778
0.138688
0.133928
0.135724
0.139122
0.138593
0.132588
0.13303
0.130947
0.139738
0.136945
0.145726
0.14932
0.000438289
0.00421511
0.117335
0.11337
0.122339
0.0635401
0.0592675
0.168005
0.170259
0.158075
0.00575211
0.00675824
0.0778157
0.0381492
0.135636
0.0373683
0.0717944
0.032676
0.0398586
0.062168
0.0795369
0.0790774
0.0733471
0.0863811
0.0861338
0.09398
0.0948637
0.0752742
0.0413886
0.0689282
0.0379959
0.0543181
0.0877278
0.0873284
0.0641891
0.06412
0.063082
0.0291568
0.00314406
0.0307153
0.00374949
0.00239676
0.0704287
0.0519477
0.052174
0.0668574
0.027643
0.0518754
0.0248342
0.0581355
0.0300879
0.0756985
0.0479576
0.0470383
0.0624336
0.0390476
0.0523227
0.018576
0.0223636
0.0622048
0.0283543
0.0616664
0.0635656
0.0927693
0.105665
0.0395352
0.0551392
0.0963912
0.0468079
0.0746989
0.0747682
0.0716176
0.0716242
0.0520059
0.0518269
0.0247878
0.0874362
0.086515
0.0151149
0.0716886
0.0244568
0.00158441
0.0650937
0.0854802
0.0441452
0.00156828
0.00136689
0.0833805
0.076115
0.0154504
0.00424201
0.091025
0.091725
0.0555382
0.0446102
0.0456465
0.0899194
0.0871196
0.0479853
0.0385058
0.040262
0.0548191
0.0754399
0.0752494
0.0301552
0.0270605
0.0310363
0.0307114
0.060879
0.059814
0.0475391
0.0506201
0.036202
0.0580838
0.00842116
0.0540745
0.0570812
0.064679
0.0709103
0.0418615
0.0669222
0.040029
0.0429064
0.0706177
0.0542661
0.0523178
0.0731687
0.0481067
0.0712442
0.0774531
0.0451694
0.0398448
0.0381813
0.0620141
0.0631382
0.0834629
0.00936245
0.0380136
0.00142689
0.0267913
0.0883297
0.104967
0.0501164
0.0476315
0.0717931
0.0464487
0.0420392
0.0692415
0.00953302
0.0494303
0.0635235
0.0664299
0.118413
0.118329
0.0351846
0.0357019
0.0883308
0.054892
0.0840137
0.0597729
0.0561692
0.0775345
0.0612716
0.0174514
0.0394126
0.0308959
0.0434562
0.0630494
0.0677542
0.0692078
0.0705169
0.01805
0.0205607
0.071189
0.0299688
0.0305002
0.0680155
0.0653285
0.0736321
0.0608369
0.0597609
0.0861082
0.0548855
0.0591701
0.0347896
0.0778748
0.0777895
0.0776212
0.0554636
0.053273
0.0538079
0.05009
0.105182
0.061046
0.0617264
0.0338294
0.0325291
0.0319315
0.06458
0.0793536
0.080013
0.0774743
0.0894548
0.0583367
0.0603284
0.0666177
0.0514847
0.0883146
0.0563587
0.0332922
0.0319903
0.0752677
0.0614473
0.0406702
0.127184
0.0421954
0.0406084
0.0358299
0.0401295
0.0286615
0.0652421
0.0635016
0.0195042
0.0846742
0.0329782
0.0853687
0.083796
0.077023
0.0730518
0.0459912
0.0472669
0.033426
0.0860274
0.0869307
0.0837841
0.0829661
0.0844343
0.0506419
0.0678271
0.0105155
0.0691657
0.0834496
0.0846156
0.0173337
0.0165268
0.0657608
0.0484076
0.0792108
0.0875173
0.0753337
0.0753912
0.0364681
0.0925798
0.0796773
0.0143318
0.0524949
0.0760264
0.0954989
0.0949826
0.0947766
0.0813588
0.0623508
0.0202772
0.0690751
0.0724725
0.0443829
0.0605378
0.0554637
0.0410399
0.0301231
0.0852694
0.0457001
0.0321243
0.0228751
0.0243504
0.00538081
0.0571292
0.0567788
0.059669
0.0243414
0.0586078
0.0581259
0.0838792
0.0534582
0.0383008
0.0366098
0.0749485
0.0497787
0.0664705
0.0430126
0.059534
0.126118
0.0785368
0.0818258
0.0753277
0.0728466
0.0736779
0.0755265
0.0742736
0.0211022
0.105668
0.100787
0.0152833
0.100432
0.0282275
0.067181
0.0634456
0.0666453
0.0796727
0.0548764
0.0533012
0.045808
0.00376249
0.043969
0.0341397
0.0163219
0.0121636
0.0780264
0.0779572
0.0498658
0.0513535
0.0496631
0.045856
0.0824705
0.079734
0.075242
0.0742148
0.0589196
0.0565772
0.0392169
0.0406973
0.0385744
0.0516848
0.0501743
0.0366268
0.0717119
0.0726303
0.0612051
0.0640486
0.0424806
0.0424757
0.00654392
0.00473078
0.0455481
0.0380867
0.0339785
0.115588
0.109706
0.0427812
0.0401377
0.0356151
0.0331115
0.0300402
0.0515098
0.0550244
0.0601942
0.0666175
0.0307281
0.0961499
0.0919838
0.101793
0.101195
0.100044
0.0826572
0.105928
0.10326
0.0873981
0.0530119
0.0262684
0.0278484
0.0221292
0.077716
0.0567647
0.0523198
0.0582218
0.0463798
0.0765628
0.0770709
0.0767337
0.0526321
0.0519161
0.0527375
0.0569149
0.055052
0.0641427
0.0637588
0.0615999
0.0542631
0.0555979
0.0646293
0.0670788
0.0388287
0.037132
0.0723796
0.0718313
0.0719603
0.0721552
0.0545253
0.0559088
0.0538537
0.088818
0.0535076
0.0769464
0.0533432
0.0362092
0.00109099
0.069442
0.0402463
0.0396081
0.101979
0.100694
0.102425
0.0679889
0.0670626
0.0677989
0.0413028
0.0771477
0.0750746
0.0783835
0.0818374
0.081502
0.0803233
0.0802064
0.0532376
0.054996
0.0788824
0.0118662
0.0712876
0.0272825
0.0916432
0.0600124
0.0402496
0.122211
0.0169755
0.062872
0.0636762
0.0546449
0.0449579
0.0433547
0.0462153
0.0867067
0.106379
0.103366
0.0890701
0.0852813
0.0603485
0.0612918
0.057716
0.0471327
0.0830151
0.0828503
0.0370645
0.0384935
0.0823784
0.034954
0.032822
0.0335096
0.058289
0.0565491
0.0564681
0.00877793
0.016413
0.000637778
0.0814378
0.0786004
0.10183
0.0794171
0.000775858
0.0488417
0.0471672
0.0894357
0.0502961
0.0524693
0.0519601
0.0506817
0.0643116
0.0657494
0.069604
0.0716324
0.0436758
0.0418536
0.0614311
0.0131885
0.0416592
0.0428976
0.00056691
0.0820579
0.0815983
0.0834596
0.0744253
0.0310997
0.0294353
0.0317787
0.00880072
0.0265421
0.024695
0.0645515
0.0637371
0.0780277
0.0938832
0.0937049
0.0931167
0.10063
0.0992942
0.0996286
0.0412003
0.0861089
0.083988
0.0885861
0.0870403
0.0877897
0.000526727
0.0364278
0.0587798
0.0728084
0.103793
0.102
0.102505
0.103336
0.0763939
0.0766285
0.0338104
0.0299528
0.108569
0.00094684
0.0748065
0.0737439
0.0685519
0.0692619
0.0671462
0.000978224
0.0936227
0.0887079
0.000451765
0.00075077
0.00175888
0.0777751
0.0777587
0.0775663
0.0514639
0.0355102
0.0381347
0.0962539
0.0726612
0.0564401
0.0570662
0.05566
0.0632496
0.0628949
0.0445538
0.000639383
0.0995023
0.0676895
0.0681218
0.0658165
0.0378361
0.0372373
0.0918136
0.0924507
0.0916453
0.0934468
0.0932052
0.0957211
0.0614814
0.000488883
0.0559653
0.0311118
0.106905
0.104107
0.0207693
0.0191741
0.0462285
0.0462805
0.0692317
0.0627684
0.0630246
0.0617836
0.0668548
0.0684018
0.0380982
0.0334755
0.0610104
0.000646119
0.000395017
0.0739031
0.0459855
0.0447951
0.0143618
0.0147102
0.0586064
0.033225
0.0318019
0.0419927
0.106148
0.102416
0.0748437
0.0726918
0.0218659
0.0724282
0.0371244
0.078475
0.0784042
0.0728626
0.0711534
0.0433649
0.0400905
0.000441871
0.000758026
0.0627361
0.0725664
0.0722794
0.000348634
0.0739342
0.0749328
0.0761412
0.0540446
0.0502061
0.0518709
0.0736427
0.0910322
0.0947323
0.095537
0.0964312
0.0963781
0.0343811
0.0242763
0.0930733
0.0944047
0.0948581
0.0925209
0.0797489
0.0777683
0.101672
0.0885725
0.068644
0.0668559
0.077467
0.0948159
0.0962807
0.00119891
0.00261458
0.0678199
0.0692429
0.0691453
0.0676424
0.0470712
0.071787
0.0696626
0.0702239
0.0675613
0.0566732
0.0569223
0.0407933
0.0377079
0.0397292
0.0384415
0.0819711
0.0780318
0.0770039
0.0786477
0.05625
0.0576921
0.056248
0.0575843
0.0460259
0.0477772
0.0486091
0.0453957
0.0407547
0.0445078
0.0402119
0.000648486
0.00109123
0.0437346
0.0440242
0.0592726
0.057405
0.0581608
0.0585394
0.0264303
0.0304665
0.112651
0.114709
0.107886
0.0382297
0.0901528
0.0924649
0.0678301
0.0679816
0.0683998
0.0677531
0.0843666
0.0759022
0.0751714
0.0742682
0.0850456
0.0860344
0.0496333
0.0481627
0.0480676
0.049644
0.0910575
0.0915739
0.0908194
0.0917401
0.0168536
0.0201609
0.0877087
0.0896444
0.0894377
0.087757
0.0880315
0.0674936
0.0674702
0.0692457
0.00137615
0.0287599
0.0272842
0.0324374
0.0548362
0.0553942
0.0529487
0.0521098
0.0922743
0.0391452
0.0403885
0.0639579
0.0663075
0.0634031
0.0513899
0.0533389
0.0530367
0.0457645
0.0695967
0.069847
0.0691133
0.0704265
0.0513561
0.0495545
0.0520537
0.0501133
0.0514473
0.0504507
0.0588388
0.0600916
0.0605101
0.0583046
0.0724022
0.0718206
0.0728832
0.110816
0.107988
0.109194
0.0827572
0.0906767
0.0907319
0.0911468
0.0902947
0.0674128
0.0670404
0.0662298
0.0682014
0.0342469
0.0381465
0.0396928
0.0523259
0.054114
0.0527643
0.00491788
0.00506806
0.062169
0.0389569
0.0177366
0.0213536
0.0431004
0.041678
0.0444584
0.0568708
0.0663593
0.064276
0.0468915
0.0485671
0.137089
0.137322
0.0219672
0.0647834
0.0626864
0.0647435
0.0609435
0.0580091
0.0233984
0.0464693
0.0458837
0.0188005
0.0240797
0.0808268
0.0700633
0.0692042
0.0696415
0.0696631
0.00773736
0.00754802
0.0657068
0.0627567
0.0653356
0.0622907
0.0250818
0.0724513
0.0981026
0.00745975
0.0696349
0.067415
0.0963205
0.098309
0.0968532
0.0502432
0.0458327
0.0515309
0.0666613
0.0659266
0.083581
0.0802416
0.0815379
0.103359
0.104952
0.104538
0.10369
0.0672433
0.0686056
0.0679803
0.0166857
0.0161429
0.0558332
0.0544503
0.0543751
0.0948382
0.0985453
0.0782116
0.0789349
0.0794441
0.0776719
0.0614872
0.0571556
0.0588891
0.0595447
0.031749
0.0414258
0.0403689
0.0676199
0.0653239
0.0664691
0.0665487
0.0473487
0.0467857
0.0479637
0.0461424
0.0761843
0.0766264
0.0765612
0.0574766
0.0569319
0.0590999
0.0580765
0.0583811
0.0588367
0.0576346
0.0267233
0.0233725
0.0228983
0.0278976
0.0387783
0.0511957
0.0468405
0.0471353
0.0638671
0.0650923
0.0642071
0.0561257
0.0539775
0.0406812
0.0389466
0.0397059
0.0398841
0.0105403
0.00782387
0.0822946
0.0796181
0.0806139
0.081195
0.0846423
0.0862253
0.0822639
0.103728
0.118932
0.0869084
0.0890547
0.0561132
0.0547527
0.0552177
0.111254
0.10778
0.136496
0.0759452
0.0760192
0.073597
0.058592
0.0565267
0.0578996
0.0427856
0.0421856
0.0432112
0.0416613
0.0932482
0.093409
0.0922856
0.0572241
0.0585721
0.059598
0.0407598
0.0396205
0.0350139
0.0379805
0.0379281
0.0468801
0.0490747
0.0482976
0.0476068
0.0441645
0.0417054
0.043395
0.0922421
0.0931472
0.0936303
0.0918868
0.0286632
0.0560925
0.0446323
0.0443637
0.0432837
0.0733288
0.073408
0.0736946
0.0731713
0.0450576
0.0460792
0.0463556
0.0448953
0.0545399
0.053696
0.0566529
0.0115134
0.0101555
0.0118394
0.0636096
0.077251
0.0746856
0.075915
0.0715528
0.111853
0.111694
0.0745453
0.0385557
0.0737181
0.0583471
0.0562766
0.059255
0.0584565
0.0572009
0.0734033
0.0732162
0.0853237
0.0875329
0.0840376
0.0535974
0.054863
0.0550376
0.0907349
0.0899906
0.0900611
0.0906031
0.042426
0.0418811
0.0435851
0.0406431
0.0244856
0.0198298
0.0221165
0.0895451
0.0885561
0.089205
0.0822116
0.0807252
0.0919322
0.091872
0.038042
0.0335763
0.0345165
0.0315452
0.0302908
0.031079
0.0857489
0.0611984
0.062895
0.0623758
0.061711
0.0551396
0.0594893
0.088538
0.0881348
0.0887505
0.0758037
0.0704789
0.0710392
0.0704085
0.085452
0.0863345
0.0842971
0.0395919
0.0407496
0.0396213
0.0406125
0.047474
0.048484
0.0588119
0.0612952
0.061563
0.0798837
0.0797335
0.0781895
0.0857514
0.0853833
0.0849837
0.0495286
0.0518271
0.0529749
0.0488617
0.00694889
0.00828907
0.0530422
0.0342624
0.0365729
0.0327832
0.0898914
0.0893155
0.0923253
0.000855285
0.00824881
0.0558628
0.0565929
0.0568987
0.0773337
0.0772773
0.0565018
0.014205
0.0808401
0.0805632
0.0816859
0.0796475
0.117714
0.117178
0.119201
0.0464983
0.0443303
0.0456325
0.0685304
0.0691734
0.089117
0.0868384
0.0874463
0.0886183
0.053683
0.0527175
0.0545101
0.0937143
0.0934031
0.0944292
0.092781
0.0297098
0.0296909
0.0464645
0.0424146
0.0571678
0.0595281
0.0575482
0.0579257
0.0590267
0.0245532
0.0193908
0.066979
0.0649087
0.0665491
0.0649835
0.0577569
0.0739103
0.0743785
0.0869783
0.100833
0.100624
0.100084
0.101521
0.0473657
0.0467472
0.0482061
0.0125894
0.0131842
0.0698483
0.0709662
0.0692053
0.0558983
0.0569022
0.0554326
0.0572687
0.072815
0.0721335
0.0921166
0.100919
0.0967858
0.0996338
0.0990707
0.0984662
0.052949
0.0557286
0.0546343
0.0539577
0.0565195
0.0567085
0.0649088
0.0478092
0.0465992
0.0475525
0.0469402
0.125105
0.123464
0.0410057
0.0398741
0.0591109
0.0601115
0.0606565
0.0585083
0.0819839
0.0803562
0.0815901
0.080729
0.119587
0.0898246
0.0893729
0.0608598
0.0636454
0.0629599
0.0610758
0.0522536
0.0545742
0.0823054
0.107842
0.10639
0.10902
0.0679483
0.0658281
0.0666215
0.0671484
0.0347817
0.0462021
0.0421962
0.0234636
0.0208286
0.0637306
0.0662591
0.0659949
0.0646736
0.0171152
0.00386205
0.0906846
0.0911425
0.0252324
0.0913999
0.0903312
0.0406573
0.0978666
0.100359
0.0765282
0.0794584
0.0488856
0.0447863
0.0812881
0.0695342
0.0689329
0.0699987
0.0734524
0.0464175
0.0441491
0.0455099
0.0482109
0.0470126
0.048084
0.0470286
0.123165
0.12439
0.041358
0.0364767
0.0368135
0.0375055
0.035725
0.041639
0.0433015
0.0411842
0.0438376
0.13873
0.0922538
0.0905631
0.0923021
0.0903034
0.0524551
0.0489821
0.0428497
0.0466251
0.045838
0.052423
0.0523319
0.0547887
0.0501107
0.137981
0.138166
0.0665343
0.0683956
0.0683001
0.0161341
0.0142037
0.0318588
0.0553158
0.0539348
0.0537513
0.0554037
0.0708976
0.0723683
0.0110474
0.0432616
0.0387403
0.0348604
0.0382192
0.0345295
0.0522035
0.0503872
0.0539314
0.000347343
0.0792357
0.0805287
0.0781684
0.108396
0.0985635
0.0711912
0.0521951
0.0607911
0.0625182
0.060233
0.0952939
0.0959908
0.0508808
0.0529283
0.0513639
0.0615643
0.0618905
0.0631783
0.0606151
0.0701609
0.0716389
0.0691237
0.120488
0.115126
0.11347
0.113771
0.114892
0.0485536
0.0469277
0.0495202
0.046264
8.88936e-05
0.052369
0.0543402
0.053878
0.0678469
0.0661446
0.0706954
0.0332963
0.00600223
0.0960032
0.0672888
0.0681426
0.0644633
0.0646217
0.035497
0.0368751
0.0348139
0.103819
0.104717
0.10319
0.105272
0.108861
0.0645979
0.0660407
0.0660749
0.0644949
0.0842192
0.083237
0.0627779
0.0619859
0.0971834
0.0961092
0.0966902
0.0964585
0.0273756
0.029668
0.028074
0.0339251
0.0342072
0.0332684
0.0348351
0.0672351
0.065783
0.0657664
0.0668436
0.0228811
0.0706244
0.0689596
0.0695182
0.011494
0.0467595
0.0434225
0.0455592
0.0443301
0.045214
0.048788
0.0452735
0.0920596
0.0915207
0.091953
0.0802945
0.0802976
0.0489087
0.0501339
0.0462174
0.0523928
0.073015
0.0722879
0.0735694
0.0716737
0.0604957
0.0594595
0.0600145
0.0599428
0.0894216
0.0889877
0.0896298
0.0887442
0.00385817
0.00380324
0.00426865
0.0124032
0.0517803
0.0493578
0.0429028
0.0414625
0.0419901
0.0423944
0.0397883
0.108846
0.108403
0.107685
0.109721
0.0758397
0.135759
0.13477
0.135047
0.135221
0.0699152
0.0711301
0.0699231
0.0129076
0.0329337
0.0350698
0.0712936
0.0717428
0.0707558
0.0898261
0.089674
0.0896002
0.00015939
0.0544762
0.0517249
0.0529406
0.0864097
0.0737068
0.0741423
0.0736373
0.0434742
0.0443231
0.0444287
0.0752608
0.0619565
0.0632375
0.0615724
0.0635116
0.000468466
0.0585556
0.0546642
0.0575878
0.0537682
0.0708118
0.0677869
0.0723967
0.0525596
0.054167
0.06483
0.0630711
0.0395184
0.0704601
0.06939
0.0691363
0.0706923
0.120039
0.0619361
0.0632285
0.000669675
0.121397
0.121082
0.0876667
0.0874538
0.0869553
0.0881612
0.0575704
0.0525855
0.0564361
0.0544382
0.0456888
0.0480715
0.133279
0.0618971
0.064571
0.0628799
0.0634785
0.0486435
0.0491862
0.0441861
0.0456506
0.0441169
0.0396962
0.0391979
0.0406514
0.0397617
0.0401438
0.00113838
0.0457792
0.04566
0.0438112
0.0476977
0.0864025
0.0873901
0.0863821
0.0255948
0.022326
0.0527727
0.0526535
0.0717335
0.052078
0.0530238
0.137169
0.0747683
0.0870277
0.0862903
0.087385
0.0858192
0.133033
0.138184
0.0247387
0.01026
0.0100208
0.0194631
0.0366082
0.00581841
0.01126
0.0115523
0.0150453
0.0857761
0.0453042
0.138599
0.00959499
0.0099143
0.00580323
0.00517004
0.138588
0.138426
0.138449
0.138263
0.00897022
0.0620861
0.0616678
0.122291
0.117823
0.127586
0.125496
0.0881321
0.0914282
0.0140382
0.00793688
0.000324717
0.0710921
0.00099154
0.0190386
0.000598515
0.00785225
0.00972731
0.130802
0.0809409
0.032193
0.0268921
0.0252852
0.000380656
0.139166
0.005058
0.00497087
0.0058617
0.0838574
0.00477128
0.149126
0.144522
0.00734141
0.137934
0.000155942
0.0256057
0.0240516
0.0118504
0.0144105
0.0159116
0.120775
0.0816496
0.0223867
0.137272
0.137382
0.0365633
0.0251098
0.0230178
0.0749571
0.0959492
0.135766
0.136378
0.0242048
0.022939
0.129567
0.00824731
0.00168462
0.000324318
0.120328
0.118612
0.00105599
0.00546716
0.0230431
0.000950619
0.000404952
0.0042278
0.121447
0.114832
0.118151
0.117864
0.00302012
0.0409677
0.00647125
0.000221545
0.0228748
0.11416
0.117951
0.0303727
0.00645649
0.00350336
0.00321013
0.130504
0.0407227
0.132061
0.129583
0.130929
0.167874
0.015123
0.0850728
0.0042344
0.00526096
0.000981313
0.11272
0.00673631
0.0359514
0.0124401
0.0314671
0.0294131
0.0294762
0.0345087
0.0208637
0.0216803
0.0219489
0.0177345
0.0247338
0.0313017
0.00872431
0.00896465
0.00196624
0.00346835
0.0228571
0.01886
0.0164872
0.00442463
0.00509458
0.0300577
0.031773
0.0211798
0.0201172
0.0210551
0.00221601
0.00593879
0.0149031
0.000973903
0.000337258
0.000527566
0.0168033
0.000661003
0.000848521
0.000340469
0.000513914
0.00853411
0.00109052
0.0604206
0.0179467
0.0447981
0.0267715
0.0055465
0.00690529
0.034094
0.0329132
0.0715341
0.0192039
0.110781
0.032567
0.0870939
0.000711258
0.00617501
0.132877
0.00429526
0.097301
0.0804652
0.133072
0.132234
0.0324035
0.0110059
0.138335
0.123196
0.124241
0.0161246
0.0710555
0.0700589
0.132039
0.00430694
0.005328
0.00332036
0.00559444
0.00611707
0.00555826
0.00969924
0.0042803
0.129839
0.0335383
0.00459501
0.00603951
0.00583503
0.00788076
0.0285129
0.0279027
0.0476758
0.110516
0.00840925
0.000156234
0.137794
0.137653
0.0232232
0.0222623
0.0297141
0.0285269
0.0222056
0.0796953
0.0237743
0.00880414
0.00139038
0.00841414
0.0447632
0.0405442
0.107487
0.094002
0.00274186
0.00296482
0.134213
0.045507
0.0281288
0.0336255
0.0344339
0.00651214
0.0746893
0.137964
0.0165561
0.0176786
0.0153837
0.136518
0.136858
0.0303458
0.0261582
0.0070303
0.0622235
0.0650223
0.0270756
0.0242307
0.0086986
0.00984129
0.135043
0.136258
0.0675912
0.150627
0.143823
0.138576
0.138403
0.0136113
0.115635
0.00755938
0.00555291
0.0604112
0.0079744
0.00719332
0.00747521
0.0145534
0.108647
0.00861157
0.00969226
0.0236277
0.00533961
0.00564734
0.12873
0.00759068
0.0332089
0.00727482
0.0604804
0.136824
0.136918
0.00188481
0.114684
0.000843196
0.019658
0.0641803
0.0664623
0.0679243
0.0331521
0.0327082
0.011259
0.0118202
0.0180321
0.0414506
0.0244033
0.228196
0.184981
0.000476401
0.0388734
0.0389608
0.0375528
0.0375914
0.0084229
0.00344194
0.0541606
0.0400384
0.0437727
0.0448402
0.0412802
0.02681
0.0110844
0.120203
0.121997
0.12518
0.138026
0.138112
0.0245714
0.0346647
0.0243413
0.0309838
0.0325076
0.099235
0.0927018
0.107185
0.0429888
0.035961
0.0247569
0.112481
0.0292262
0.0651429
0.0670358
0.0690882
0.0390404
0.0288606
0.0682849
0.0668717
0.104086
0.138417
0.111133
0.108951
0.130598
0.115478
0.0127286
0.0205407
0.014357
0.119579
0.118085
0.128314
0.00816882
0.00946667
0.0643267
0.0414659
0.0352498
0.0263446
0.0239419
0.0502831
0.0503042
0.0518062
0.039223
0.015755
0.0304367
0.0297691
0.0198478
0.0225042
0.136765
0.137154
0.136746
0.137146
0.0146766
0.0144043
0.121878
0.0205444
0.0201638
0.0313155
0.028375
0.0281037
0.0318456
0.0346938
0.0342155
0.137829
0.136146
0.135587
0.097469
0.0815343
0.0683126
0.136289
0.0230169
0.0203581
0.0118746
0.102278
0.27574
0.214111
0.240091
0.0605511
0.0587242
0.0870127
0.0343657
0.0335885
0.0304055
0.00142233
0.214159
0.0121497
0.0504006
0.0547281
0.0531123
0.0511716
0.00250529
0.136055
0.136613
0.0105786
0.0345188
0.117262
0.138848
0.138899
0.111918
0.111582
0.000270749
0.0374721
0.0802616
0.0630438
0.064107
0.0644085
0.000388659
0.119971
0.123311
0.118318
0.137235
0.136851
0.0391433
0.0317404
0.0337474
0.0220502
0.0300653
0.0429851
0.0434626
0.0420973
0.0944026
0.00067431
0.116482
0.113619
0.0168418
0.00196991
0.104629
0.109816
0.122112
0.118176
0.0419391
0.0413022
0.0208435
0.133379
0.0406204
0.039965
0.0419218
0.0417989
0.196734
0.186387
0.0368307
0.0358707
0.0346019
0.00811109
0.0102509
0.0137955
0.0157339
0.0171885
0.0340913
0.0205233
0.0444949
0.043017
0.0392599
0.117208
0.119999
0.00173051
0.037753
0.0514574
0.0523501
0.0538368
0.0368131
0.0410757
0.057011
0.138454
0.0126196
0.0544326
0.0595723
0.0579919
0.122613
0.122165
0.0134158
0.135149
0.0234191
0.00884739
0.0565013
0.058625
0.0602149
0.0618819
0.0611377
0.0959471
0.101483
0.0355463
0.0340364
0.0211575
0.0222287
0.0284398
0.0254381
0.0165871
0.0133026
0.015628
0.0356517
0.0413186
0.0204357
0.00289934
0.106728
0.0319691
0.0316502
0.0327766
0.0110305
0.0196879
0.124853
0.123735
0.0838108
0.084331
0.0835205
0.0168595
0.0569144
0.00815203
0.000902673
0.1388
0.0530339
0.0294948
0.0280288
0.0301521
0.0492133
0.035782
0.000514082
0.140484
0.0595889
0.0834775
0.0195534
0.0254506
0.0656791
0.0292612
0.0280307
0.0103735
0.0737561
0.0349712
0.00441814
0.121171
0.113331
0.0987199
0.0994764
0.103866
0.00145311
0.00364275
0.0427613
0.0120219
0.0501299
0.0542999
0.0441952
0.04444
0.0381596
0.0385038
0.042216
0.0185709
0.0193091
0.116906
0.113693
0.138866
0.138799
0.0928735
0.0911574
0.00582482
0.0369418
0.0348069
0.01989
0.0208356
0.0695575
0.0673628
0.00458135
0.0248407
0.0205731
0.0531635
0.0576053
0.120339
0.117709
0.0962927
0.138502
0.138386
0.0478497
0.0468438
0.0508343
0.0500952
0.032338
0.0292059
0.104833
0.0181485
0.0196391
0.0459399
0.0476961
0.048451
0.0476705
0.0532913
0.0514877
0.0838761
0.0834102
0.0821535
0.0837131
0.084464
0.0857399
0.0418581
0.042191
0.126596
0.134693
0.135291
0.0157369
0.00919605
0.129749
0.12735
0.0432907
0.0434553
0.045175
0.0448174
0.0754799
0.136279
0.144666
0.00184065
0.036399
0.0372707
0.039767
0.117503
0.0362651
0.139074
0.140616
0.0815177
0.0342916
0.0357542
0.0926984
0.0939612
0.0900739
0.0889847
0.0962827
0.09484
0.0099692
0.0082597
0.068165
0.0677915
0.139258
0.139199
0.139351
0.116193
0.0393614
0.123907
0.0577157
0.0624476
0.0726514
0.0696971
0.0151317
0.0431991
0.0421296
0.106481
0.107965
0.0327068
0.125655
0.0263469
0.0184683
0.13841
0.138215
0.102944
0.0812554
0.0777512
0.0787127
0.0799814
0.0170995
0.0190441
0.118795
0.034293
0.0356688
0.0504472
0.154652
0.166193
0.0461584
0.137925
0.137597
0.0305806
0.0278094
0.138513
0.0713443
0.0740918
0.0726916
0.0361735
0.036864
0.0611428
0.0650995
0.0427447
0.0412888
0.134553
0.00345401
0.0504555
0.0508401
0.0490869
0.0481789
0.0344151
0.117884
0.113683
0.109637
0.0738849
0.0705671
0.0725388
0.121699
0.117132
0.112446
0.0693565
0.0706177
0.0700687
0.13339
0.134658
0.134163
0.0888052
0.0775391
0.0508426
0.0520674
0.0140749
0.0126745
0.0144556
0.116312
0.102428
0.108763
0.113862
0.0555145
0.138803
0.130711
0.128658
0.0208171
0.0234128
0.0649992
0.0666596
0.091853
0.0909558
0.0900235
0.121902
0.124288
0.117961
0.081265
0.0863338
0.0869826
0.12396
0.1248
0.125836
0.0530166
0.0506615
0.136895
0.137237
0.137419
0.0640995
0.0619183
0.0610743
0.129084
0.130113
0.0705851
0.0710591
0.00636913
0.0648539
0.0646559
0.0480145
0.047918
0.0179546
0.0192433
0.0462545
0.048364
0.0484195
0.0713449
0.202132
0.256461
0.0369377
0.00311611
0.0681104
0.000765325
0.0874236
0.0883677
0.0386171
0.0136262
0.13309
0.138074
0.138151
0.122838
0.123862
0.0426451
0.0414189
0.138541
0.0767398
0.0763641
0.00547815
0.136347
0.137293
0.137684
0.0629312
0.0621863
0.131953
0.107318
0.105274
0.126917
0.1231
0.131354
0.131494
0.0406695
0.0412442
0.0854466
0.0874348
0.0107976
0.0966747
0.101474
0.180926
0.153158
0.0977776
0.0977659
0.118066
0.111654
0.0738019
0.0737954
0.154898
0.14166
0.141728
0.0377011
0.0365121
0.0370956
0.0509065
0.0505305
0.0146078
0.134918
0.140704
0.127511
0.0672663
0.0640209
0.0770066
0.0767538
0.122981
0.123634
0.124772
0.0363168
0.0389242
0.0793779
0.0802399
0.107518
0.109146
0.0347349
0.0382283
0.0694655
0.0687037
0.02763
0.0284121
0.0303063
0.107758
0.112221
0.106816
0.0260795
0.0629483
0.0622598
0.0625005
0.0417845
0.0418933
0.040353
0.0435416
0.0454138
0.151256
0.0376861
0.0411325
0.0549134
0.055185
0.0742133
0.0743274
0.0752655
0.0798569
0.0774918
0.0754039
0.0571211
0.0552752
0.0408081
0.0419787
0.0390822
0.0407336
0.0415342
0.0573255
0.0600733
0.0149328
0.0267497
0.0280623
0.0257239
0.0232575
0.0257928
0.000702279
0.137332
0.136482
0.135694
0.138234
0.13852