/*--------------------------------*- C++ -*----------------------------------*\
  =========                 |
  \\      /  F ield         | OpenFOAM: The Open Source CFD Toolbox
   \\    /   O peration     | Website:  https://openfoam.org
    \\  /    A nd           | Version:  6
     \\/     M anipulation  |
\*---------------------------------------------------------------------------*/
FoamFile
{
    version     2.0;
    format      ascii;
    class       volScalarField;
    location    "1100";
    object      p;
}
// * * * * * * * * * * * * * * * * * * * * * * * * * * * * * * * * * * * * * //

dimensions      [0 2 -2 0 0 0 0];

internalField   nonuniform List<scalar> 
29874
(
2.94035
0.168739
0.170872
-2.93061
0.180711
-4.55
-1.17038
0.73093
2.56499
0.579587
-2.41904
-0.0435356
-2.02254
-0.281741
-2.17338
-4.3707
-2.96321
-3.28007
0.385888
-0.00163102
3.22848
-1.81003
1.21039
0.896348
3.82043
-0.706538
-2.1152
0.222432
0.445173
-2.69444
-2.53388
-3.6329
-0.601568
0.963216
2.83413
1.3976
2.82347
-1.75609
1.38163
-1.10461
0.996426
1.16778
1.42008
3.21406
-2.44826
1.71117
0.976937
-0.841626
-2.94474
4.18243
-0.359925
-2.47962
-4.11759
2.58141
-0.312261
-0.799639
-0.662127
0.85978
1.79728
-2.23747
-0.698698
2.17013
1.50809
6.14679
0.277298
0.9632
0.300714
1.12161
0.615887
0.545471
-1.99849
-1.51643
7.60172
0.518166
1.25417
-2.64587
-0.93932
-2.3843
4.52746
2.55658
-3.32365
-0.293738
1.01144
-1.54012
14.4683
12.268
0.482144
0.285117
-1.78039
-0.993606
18.162
1.16499
1.22935
-0.608779
0.138244
2.93634
0.512948
14.2896
19.5559
-0.284866
-0.307152
0.506985
0.947193
4.635
6.34388
19.3948
17.5509
0.164767
0.675735
0.323665
17.8376
-1.61398
-1.76699
1.11213
1.01823
1.01741
1.95885
1.59775
24.2975
1.6731
1.35219
-3.44239
-0.0619983
-0.133184
-0.132912
3.32585
-1.23794
1.29515
1.6596
3.8089
0.728497
2.9447
2.52144
1.14625
0.764263
1.5408
1.02758
-0.185289
-1.64731
3.47957
0.977961
1.51437
-0.590652
5.57927
0.925485
2.88722
-1.24264
2.07221
0.581807
1.83314
-2.15228
-0.841717
-3.32763
-0.231831
-0.61213
1.15139
3.77621
-2.16716
-1.78112
-1.92847
-1.48496
4.35264
7.15916
0.840788
0.634847
0.948122
0.52849
3.32155
3.87553
1.01114
0.763245
0.617623
0.836798
15.7003
16.9777
0.760458
0.503327
23.5884
3.80697
3.89098
23.3983
23.3986
-1.45275
3.30074
4.14206
-4.48915
0.438906
0.506238
-0.174256
0.929558
0.943455
-4.7964
3.35867
3.48348
3.24008
1.76625
1.45324
-0.448691
23.2491
23.3541
-1.56084
-5.50345
3.2998
2.80058
2.21855
2.72658
2.23333
-6.17329
2.10514
2.21599
2.05749
0.507332
5.02791
3.36065
-1.37845
1.39787
0.642057
0.464906
0.485172
0.698582
-0.918225
-4.58789
-0.365028
2.15977
0.805304
0.513813
-0.335897
-0.151357
-0.583293
0.789738
0.81821
0.762638
-0.00638693
-0.541343
3.32084
3.44829
4.32783
-0.607191
0.375651
-0.623736
-1.82018
22.2305
21.5629
3.91952
2.99549
20.9885
21.242
-9.85052
2.60874
-6.96792
16.0234
2.07838
-8.84806
18.6912
0.193351
20.6201
17.6148
23.2114
-7.32961
17.6358
-3.52283
18.709
17.4281
-3.66073
-4.77994
-6.41209
-6.78876
3.27933
3.43142
24.6172
20.4698
20.843
-6.16955
-7.55509
-0.150485
2.91273
-5.7622
22.0976
4.14716
-0.566367
-1.59189
0.215993
0.696342
2.33515
2.07292
3.22183
1.2188
0.820234
20.3727
20.1333
4.22869
2.90152
3.02519
-8.24512
-8.29151
17.5331
17.5123
-4.51876
-8.09163
-7.96691
-7.52244
18.4054
3.27689
19.5345
3.13998
3.25215
20.1891
2.11723
-4.64179
22.9096
-8.8576
-8.81904
-4.98049
-5.44776
-5.20776
17.9784
17.9961
-4.4427
3.63669
3.7166
-5.52293
-10.513
20.1217
21.3412
4.00707
4.03879
4.32427
-0.588257
17.7222
17.515
3.42693
2.82217
17.7033
17.6056
-8.74707
-5.28361
3.05485
2.58723
2.60128
2.5449
21.0139
-4.87393
21.3955
21.0646
21.1615
21.2585
2.26328
2.60109
-9.63693
3.01941
2.04901
-3.10029
-9.10478
-8.407
-8.45149
0.402001
20.6583
20.3013
8.43059
24.6406
-3.76437
20.8269
-6.21908
21.2364
21.294
2.90608
2.98097
2.67719
6.02642
20.0781
20.3551
19.4604
20.0292
0.864606
0.646401
19.6598
18.4977
18.328
18.7195
18.001
21.1762
21.5689
3.31321
3.12364
3.37533
3.19442
-2.48153
2.35064
2.23976
2.04064
-6.80088
-8.01301
21.948
-5.59118
-4.83546
-9.45348
-8.9275
-9.59409
-9.73695
2.82878
-5.97564
-6.51159
-5.96284
4.49656
4.47103
3.98959
21.2499
20.9445
20.8246
20.7491
15.5862
16.8491
16.0632
15.711
1.72231
18.141
17.8523
19.063
19.5862
21.0203
21.2642
21.5403
16.6972
17.7611
15.7268
16.7145
17.6965
16.266
-1.17287
-0.635928
-4.85934
-5.53075
-5.55529
-5.10719
17.816
-3.74008
-3.45022
16.9245
17.3512
18.9216
18.1901
18.0595
17.6552
19.6354
19.6791
1.62177
4.24281
4.31279
4.57986
3.55695
19.8791
19.6881
20.6065
15.1429
14.5826
15.1404
-6.17663
-5.7289
-6.10373
-5.65371
-6.10839
-5.03321
-6.82259
-6.1279
18.2124
17.8835
18.2574
2.68885
1.05358
0.935359
0.999585
0.878658
0.801097
11.5361
4.00369
3.87861
3.79462
19.3106
19.602
18.7742
-5.46096
19.6608
18.5522
18.8771
18.8968
1.11276
21.1762
21.5152
21.3422
20.7557
-2.05122
24.5894
-4.888
-2.3818
23.5881
-0.515827
-2.41967
0.579811
0.65475
0.668011
-2.79521
-0.864584
2.57531
2.263
-0.332504
5.53732
6.0979
4.228
4.5838
-1.90087
1.45873
1.57437
10.6017
1.00967
1.09417
22.5785
0.587361
-4.21019
23.8778
-0.25813
0.957612
-1.15922
10.4599
-1.76432
-1.60105
-1.77374
1.12452
0.59783
-1.99445
-2.15136
-2.14098
-2.03015
3.57179
3.67106
0.279739
0.369867
-0.421325
4.9597
2.74804
2.82786
-0.233745
-0.300605
24.0349
22.3971
-1.3211
-1.28077
-1.86437
-0.193558
0.156392
3.21167
-3.83678
0.758305
0.855284
-0.131131
-7.1657
-7.92946
-6.33345
9.1889
0.640258
-4.27211
-2.41351
-0.397058
-0.393786
-0.319442
-0.659928
22.5133
-3.02234
-2.72347
13.9715
13.1828
21.5559
-4.00439
-0.738405
-6.75123
-4.46817
-1.20191
-0.92979
1.18898
13.8044
-4.55452
-5.22143
7.45626
8.44205
-0.476331
2.81105
2.78949
-0.590497
0.63642
1.00342
0.827289
1.04186
-4.95115
-5.55856
17.6443
17.988
2.51027
2.10385
3.87628
4.26057
24.104
0.227042
-4.04299
2.0042
2.16508
2.37204
0.583668
0.645582
1.47558
1.49277
1.37166
18.6862
19.1533
18.7571
1.88547
1.92832
1.78772
2.11009
-5.6366
-5.08689
-4.86863
-0.457368
20.7989
3.85438
3.67967
3.39759
3.73873
18.092
19.0773
9.24762
10.2259
3.19436
0.016147
2.81091
2.36473
-8.63252
-9.27978
12.3471
11.5594
10.7557
16.4032
15.7958
1.76256
1.85189
2.02588
-2.46818
1.4468
1.12344
4.40098
5.1688
4.80452
-0.779654
-0.940737
6.03828
6.09331
6.72733
0.867382
-3.34705
-3.1995
-2.99994
24.6079
22.5679
0.101049
0.237549
0.5405
18.9163
19.1251
-0.861648
-1.3131
-0.506355
-24.1502
-23.2389
6.71858
-9.96338
2.95674
19.0973
3.28981
21.6174
19.2987
1.57822
5.99296
5.37051
-11.4391
3.3571
3.25441
4.03021
4.19696
6.05846
-7.68301
-2.88705
18.1586
16.9088
3.20612
2.8861
-11.4399
-11.5259
-0.0341259
-12.592
23.6326
22.4026
20.9928
21.2138
0.44657
-3.915
-3.48372
13.406
18.3072
-3.62277
22.9028
-2.07314
19.5002
6.16042
16.7289
16.9581
-0.556443
-8.75326
-10.8985
16.6378
16.9838
0.0054031
-13.3809
1.89508
2.51617
3.28521
2.6106
-8.5189
-2.63586
2.56756
0.736483
-1.01298
-1.25342
-11.0805
-10.7547
-3.67363
-3.33626
-14.9077
3.77833
3.57647
-18.4615
3.44401
-7.54221
-34.1564
3.3029
1.08509
-6.6013
-33.9928
-28.5766
3.53403
-15.8188
-19.0679
18.8731
6.02337
6.25395
-2.72013
18.5806
18.3976
3.35669
2.25735
15.064
21.8269
21.6039
-4.08299
5.49868
5.29201
-9.20042
-8.99136
-12.3543
-11.9415
-3.24122
-0.275711
15.9692
15.9551
-5.98953
-1.17113
-4.95001
0.287536
0.0550685
15.7886
14.7467
-7.86874
2.3601
-8.42975
-7.11041
3.5701
17.1869
17.3463
4.58561
-5.16708
-11.0648
8.9674
-12.9099
-10.5385
-10.6073
15.7765
15.8394
-14.9471
-24.5041
-12.181
14.6571
-17.3931
5.78584
3.3774
-4.50089
-5.65953
4.32145
18.4683
15.5686
2.03052
-24.1873
-4.99819
-1.12656
1.99378
4.25895
4.48714
-10.2951
-10.1693
3.53447
16.4048
2.42491
-0.244302
-2.55433
6.71366
-0.182778
22.1401
19.2779
-11.3875
-7.25129
-2.78002
-1.99563
14.9774
13.8885
-0.991408
-1.7895
1.56455
-12.429
-12.4851
-11.522
-11.5261
0.635365
-0.504634
-0.696663
2.61928
-4.54102
-3.51622
-6.02461
8.42952
7.56985
7.00558
-2.5448
-3.26098
-13.346
-13.6096
4.38411
-1.84933
-1.70206
21.4117
21.6909
21.4516
-10.6112
6.64582
4.29843
7.82852
5.3646
15.4678
15.4234
-9.45187
-3.95181
3.47051
-3.13173
-11.2939
-12.1859
6.08122
-4.29397
-10.9321
3.05989
-7.48831
-8.06028
-9.19312
-9.70011
-15.925
14.7886
15.8043
15.8812
2.83427
-10.2173
2.88676
2.32751
5.7969
6.99813
-6.43836
-6.52199
-10.8918
3.02516
3.2572
2.55941
2.41817
2.66351
-4.22916
13.2636
-23.5221
0.284109
2.36299
2.548
-7.39859
-7.5048
1.27491
17.1599
-10.4474
-11.5374
-11.0752
5.29338
19.2364
4.41361
1.68314
-21.6684
15.7324
13.7546
4.30955
4.20092
4.4179
1.02109
-2.08149
-19.4486
-0.406275
0.452624
-6.48057
-10.7581
-10.6589
-2.25139
-16.3092
-1.58859
-10.9615
-12.5032
17.5033
17.2048
23.857
-10.6783
-10.3899
-10.5771
22.0223
15.4144
15.1797
3.15429
-10.5901
-9.52636
-10.3505
4.08527
-4.46747
6.05266
20.8235
-10.9081
3.22126
-0.541089
4.25114
3.84133
1.74022
1.91775
2.20881
-11.8542
20.9032
1.14958
1.75563
23.5668
2.84309
-3.63029
1.20103
1.10925
-11.2919
12.6481
-0.1169
-0.213145
18.059
-4.49562
-6.94222
16.7169
-6.3016
-5.79113
1.48484
4.87216
17.641
17.5106
18.0218
16.0644
2.9686
1.91778
0.55963
0.694732
-3.52642
-4.18028
-9.2496
-8.10815
-9.16294
16.6873
16.9288
19.0835
0.561889
0.856221
-11.1133
-11.3501
-7.99822
-8.30351
-5.0811
-4.55956
-6.04406
-4.31102
-3.73418
3.53783
3.07102
16.3237
16.9023
-10.7878
22.2627
17.5847
17.5791
-11.9712
-11.3248
-10.5698
-12.5078
4.61182
3.53816
3.69186
3.68112
3.60594
-8.26626
3.0716
3.49161
3.41034
-4.16986
-3.89226
-4.34033
-3.87426
2.38459
-11.673
-10.9068
3.68833
18.0044
5.50421
6.13867
5.78541
17.6132
15.6902
15.7202
17.0063
17.2587
-0.698849
-0.225312
-0.83127
-2.7771
-2.20623
-2.41299
-2.25292
19.0553
19.2943
-11.6298
-11.3906
-11.0537
-11.1368
-3.22083
-2.26555
-2.99543
3.30445
-3.13872
4.586
15.8209
-9.75294
18.4136
-10.8482
17.3333
17.4142
3.56684
3.6051
3.65523
1.91508
1.75168
2.26765
21.3576
2.01074
1.89636
2.10357
1.94384
2.0156
1.93974
1.72888
-4.67861
-4.21308
6.239
23.3832
4.20041
-6.91738
5.30601
15.832
-8.24954
3.79974
-18.3246
-1.76021
-1.68539
-14.3805
16.1772
16.0506
16.1236
2.69447
2.60346
3.11367
3.21553
2.73055
1.24199
1.09718
1.07478
15.9712
5.51876
5.02595
-9.9083
-9.12134
2.12612
-10.8286
-11.632
-10.9769
-2.61166
-3.2813
-2.55879
21.901
-18.0678
23.0421
3.50089
2.83621
3.55425
1.74755
21.7638
17.8232
18.0212
3.65832
17.5806
17.0857
16.698
16.9812
0.60628
1.183
14.3927
14.2622
-10.5016
-10.6135
-0.282713
-3.17339
-8.0046
-7.02631
23.3478
4.4701
4.04205
4.55146
1.28562
-12.5953
-12.8651
-12.1026
-6.3079
-9.6687
-9.58645
1.31206
0.884927
5.74497
3.72133
3.87592
3.59082
3.57931
3.62104
3.52338
21.7654
3.39291
2.77232
3.04336
2.74233
3.06747
23.5521
19.161
-1.10823
-1.43913
3.47579
3.543
3.59712
3.42406
3.17911
2.6151
16.2454
16.3825
3.58101
20.6945
5.24687
4.70665
-9.55362
-10.2397
-10.7507
20.4368
4.28473
3.93945
23.7781
21.3643
21.2471
8.88055
8.63615
8.81365
-3.33585
-10.0529
-9.02593
4.18683
3.79617
16.7403
16.8862
17.1355
1.07289
0.530474
16.4331
22.5194
5.88114
-9.34624
-9.2223
-8.23616
21.7752
21.8478
4.22483
4.28663
3.818
3.3999
3.22055
3.36767
15.2715
23.8178
0.904101
20.1356
5.35554
5.36174
-16.0119
-16.8214
18.2608
18.1079
1.52586
0.945378
0.612484
-0.00944464
-0.0369119
0.781781
-8.65819
-8.09224
-1.99889
22.0434
24.1159
-11.8347
17.3338
16.8614
-19.4333
-19.3541
15.9712
-11.2194
-12.0559
18.7615
2.14213
2.4552
13.8399
14.1287
-15.4703
-11.4901
21.4271
7.01675
7.16594
-1.22653
-1.42359
-9.12033
-8.91927
24.1261
24.1169
-10.9099
4.65527
4.31017
24.3163
4.5505
5.01468
13.2839
-12.9076
-13.445
-12.6151
5.26975
3.4148
3.76604
3.45649
3.5589
3.75535
-11.0567
22.9264
3.22168
3.55273
3.61158
3.52265
1.844
1.42438
3.23962
3.48571
0.133228
0.0226105
7.95147
3.34635
3.51105
21.0031
21.4002
-9.92943
-10.4576
-10.8148
-10.6183
17.1796
-11.0827
3.18467
3.4169
-1.7135
16.9606
16.8825
21.3245
21.7216
21.328
21.2701
3.13167
13.2704
12.9349
12.7724
-3.96734
-3.41728
-2.94686
-2.54483
16.4392
15.5803
16.8051
17.2903
-6.52677
-6.95902
-7.21765
22.835
23.0909
18.7454
18.6178
15.7907
16.0478
15.9125
15.9012
-16.3281
-11.9718
0.689081
0.536522
-5.28602
-9.31941
4.10685
4.42532
-9.50653
-9.42947
-9.0093
-8.0541
4.82894
4.59563
1.26447
1.22291
2.35998
2.50118
16.9111
17.1716
16.7302
16.3483
3.68272
3.61743
3.43922
3.64522
-1.97962
21.3288
2.5224
2.7987
3.05286
2.87215
6.49382
-10.0743
-9.40126
-9.97382
-5.48092
-6.82492
-6.53358
-6.77965
16.0694
15.6335
15.9874
-5.56873
4.77029
-9.15629
-7.59627
-9.29408
-9.19655
-8.652
17.0632
16.9234
17.1274
-7.90401
-11.3099
-11.2581
-11.1451
-11.0564
-9.68155
-9.20097
-9.71568
16.9441
16.6699
16.4787
-2.48763
-1.94884
-0.712967
-1.38819
4.57265
4.50667
4.73941
2.25727
2.55159
2.02612
3.96707
4.21013
3.98274
3.69543
3.67833
-10.8544
-10.624
-10.8162
-10.8598
-11.2467
-9.42818
-8.60271
17.1898
16.8767
16.7178
-4.11396
-4.72972
-4.60632
18.2758
-4.90903
-5.08757
-7.74973
-8.30425
19.8623
19.2277
15.2192
15.3912
18.1395
17.8324
2.08339
1.89001
-15.0832
-8.21348
-7.31891
-7.88797
-12.4561
-13.0203
-15.0229
-5.41904
-6.01454
-6.4425
-6.87636
-7.73037
3.13181
2.64008
3.26239
3.29415
-22.9345
-22.5579
-10.9749
-10.9946
-9.84267
-10.7179
-8.03033
1.00827
3.85378
-22.1986
14.8183
15.0925
3.64689
3.60693
3.48177
20.0068
19.9883
19.8505
-8.23543
-7.22973
2.57497
2.26423
2.53489
3.54031
3.33897
3.32085
3.38462
2.263
2.65732
2.60824
-6.89737
-7.09216
16.6807
16.844
17.0366
2.96945
2.21223
3.28655
3.46715
3.74962
3.05008
-8.35534
-8.25085
-8.4719
-8.00194
-11.4552
17.1062
17.1055
-0.386588
-1.10363
-1.43326
-0.872417
18.5669
18.3538
18.089
18.4226
5.72826
5.89558
5.85783
-2.62726
-1.9101
-1.14737
-1.19652
-0.96705
-1.23499
-1.95721
16.2233
17.3149
16.6182
16.9428
19.4002
-6.40524
-6.81391
-6.21656
15.0496
14.7593
14.47
16.9332
17.3376
-8.07554
-9.008
-8.4327
-8.26801
-5.62426
-5.12647
2.87836
2.47841
2.78519
2.6764
3.47418
3.87826
3.18141
5.03883
4.62529
2.6499
2.99863
16.1797
16.4343
16.2454
1.25791
1.10071
2.25072
2.38834
2.38382
2.52263
15.3211
15.5719
15.6308
-7.70031
-8.03952
-6.78277
-7.92204
3.92858
3.94959
3.7677
-7.33534
-7.00163
-7.82932
17.9683
17.9902
16.7868
16.7919
16.5743
17.4323
17.1613
17.1432
17.0755
18.0491
18.0926
17.9232
3.27352
3.48469
3.2897
3.02131
-13.5387
17.3505
16.8378
17.2287
17.02
-11.6638
-11.5679
-11.4699
-11.2881
-5.95514
-5.4392
-6.31327
-6.75812
17.4681
17.4447
16.7927
22.9271
22.9314
22.9913
0.598104
2.61377
2.21665
2.45749
14.0109
5.1794
4.90602
4.07702
-8.81645
-11.9435
-1.56842
-10.1537
-10.284
-10.0647
-9.54432
-11.8307
-11.7208
3.35506
3.34697
2.98888
17.3633
17.1695
17.0247
3.69973
3.57285
3.56715
4.00582
21.6756
21.7633
21.4412
21.7255
-5.7887
-5.59175
-5.36863
3.99486
3.82794
3.99761
5.32476
4.51385
4.93923
4.88525
-7.36029
-7.52651
-7.07362
-12.0884
-12.1646
-12.0921
5.33783
15.8014
15.279
15.0639
15.3624
-4.69268
-4.93001
2.82289
2.63307
3.80138
-0.167193
-11.0733
-10.7795
-10.4215
1.28693
2.16613
0.939972
-9.25607
-8.86599
-8.55258
-8.23762
-9.47853
-9.70529
-12.5768
-12.3176
-11.6597
0.965433
0.762623
-0.0819998
2.56488
2.49501
2.48509
-8.45164
-8.15159
-8.31676
-8.14219
-25.9539
-25.0871
-3.42857
-10.7013
18.3876
21.2839
3.83797
3.46181
3.88573
20.6116
-25.0571
-1.86954
-1.3534
-1.86558
8.08397
8.02173
-2.19152
21.9299
1.94079
1.8029
2.15292
1.96428
1.99122
1.64299
1.67999
-6.22465
-7.31089
-6.57173
2.07253
2.66297
3.21507
3.02633
2.77022
3.02857
-3.43418
-3.72847
-3.29177
3.68579
3.5173
3.41281
3.23895
-13.227
-12.62
-10.2744
-9.76836
-2.18368
0.0350147
-0.388519
0.0996247
0.0376059
-6.38347
-6.02743
-9.77131
-9.47176
-10.2003
-10.1796
-2.00524
-11.7745
-11.846
4.2904
3.57482
3.75644
3.93896
3.73141
17.9924
18.3215
18.2514
-5.31358
-5.08828
-10.6051
-11.0343
-10.8906
-3.36125
-2.87878
-2.3758
-1.605
2.83885
2.42597
-11.6242
-13.2354
-11.6198
3.64539
3.61518
3.81087
17.8071
17.3447
17.0102
17.4763
17.0134
17.1253
1.76076
-4.97923
-5.77271
-5.90162
-5.92099
-3.8182
-4.11766
17.4709
17.7977
-3.70524
-2.76661
-2.32511
-2.38963
4.65728
4.01754
4.4882
4.6086
-2.38496
5.9685
5.87104
-8.9001
-9.28748
-9.45448
-9.55405
-9.88846
-10.1582
1.26767
3.0219
3.354
3.17415
-0.98578
-1.64082
-1.55074
-1.54202
22.135
17.9533
18.4829
-15.4515
-16.6509
-9.26713
-8.60677
-9.13028
-8.24916
-20.3979
-4.53103
4.583
4.85721
-17.6928
3.38513
3.21821
-8.91853
4.30959
4.40216
3.69732
3.77795
20.4736
20.7511
1.95206
-10.251
-9.51891
-10.1238
4.1883
-5.93895
-6.66624
-6.41662
-5.42938
-6.08715
-4.57977
-5.17825
2.50065
2.26779
18.3065
-10.1821
-9.84451
-9.36074
-10.2948
16.9065
16.4826
17.3679
17.5267
3.35309
3.1308
2.88112
3.33511
3.2642
20.5704
-4.87733
-4.65358
-4.72646
-3.82034
-7.23883
-8.01816
-8.08289
-7.84863
1.55528
1.48801
14.873
14.59
15.0021
-5.60198
-5.55756
-11.5681
-3.66158
-4.04533
-3.03422
-2.64733
-0.467875
-0.994522
21.6683
18.1297
-6.32088
-5.87721
-6.18612
-6.50697
17.3401
17.49
17.2485
21.3942
3.51727
3.69951
3.32981
1.28292
1.23217
3.31155
-5.71023
-1.67492
-0.368897
-0.92138
4.09736
3.78991
-4.20117
-3.38643
-4.52509
-12.8842
-11.4502
-11.3398
-11.4088
-0.925674
0.134327
-0.852364
3.10383
2.94582
3.25052
2.70139
2.92755
20.5191
20.9074
20.9041
21.1863
23.3806
-3.47767
-2.73522
-3.45457
2.32118
2.66484
2.9361
22.2998
23.5101
4.89418
-10.9234
-10.966
0.88415
1.01915
-10.5075
-10.6417
-10.3556
3.51171
3.50757
3.66493
3.5649
2.43912
-0.980461
-0.640602
0.14
0.185309
2.38592
2.06463
15.1623
15.3924
3.91213
3.9813
4.03001
3.86058
-13.3871
-12.3811
-13.4285
-11.2993
-11.1254
-11.2628
-10.5322
-7.70853
-7.05624
-8.27116
-8.45677
-15.0679
-11.5076
-11.5106
-11.3334
19.7924
20.8683
20.9715
20.31
20.6326
-8.91487
-9.00511
-8.5068
4.58871
4.42832
4.62259
1.71574
1.76339
-2.236
-2.96008
-2.73657
-3.43056
1.22525
0.636856
2.18648
1.80346
-0.440651
-1.13461
-0.48496
-0.375893
3.29909
3.38413
3.54405
3.09569
-4.42012
-4.55749
-4.43003
-20.7195
17.4488
17.6939
-6.90936
-7.66471
-7.52492
-7.13606
-9.16662
1.79081
1.23059
2.04945
1.7026
6.32885
4.95592
5.74766
5.30031
4.87069
-10.7339
-10.6617
-10.1425
-19.1688
20.378
20.4152
4.00181
4.01158
3.54031
5.30539
5.5153
5.24666
24.7065
-11.5242
-12.0327
-12.1592
2.04243
-11.4696
-11.7026
-11.6674
18.6035
18.5136
18.377
-11.7741
-1.74496
-1.11286
-0.488791
-0.0188872
22.6054
-10.5649
-10.2735
-9.25604
-10.9396
3.683
3.51377
3.5738
17.23
17.229
-10.3735
-10.4099
21.6877
0.895323
0.0515316
1.08883
1.67039
-8.47521
-7.44586
-7.21735
17.7384
1.46872
1.48947
3.13286
3.25567
2.84384
3.07607
19.7478
20.2343
20.0348
20.5005
17.9318
16.793
-7.58003
-2.53716
-1.84596
-2.09812
-2.19545
17.3556
17.7132
17.0929
17.0794
-5.87658
-6.03056
-8.57438
-7.96197
-8.44348
-8.5602
7.93054
-7.14972
-7.53085
-7.43692
-7.83515
2.40362
3.17866
3.32363
-8.70004
-8.24271
16.0605
15.8839
3.50156
17.2988
17.3763
0.644614
4.95928
2.42445
2.45366
2.72738
2.54869
-5.70948
0.229625
-16.915
23.9897
23.997
20.1177
-15.2922
24.0829
23.9986
23.9699
-19.3106
-0.355097
-13.77
-0.0533823
23.8841
22.8152
23.4309
23.6218
-1.76856
0.00457946
0.0299744
0.0973393
24.206
-4.20077
-3.60101
6.24863
7.12486
-4.01608
-4.49192
-1.02315
-0.179611
20.3937
24.2099
23.6441
-0.528676
22.3292
23.0552
23.4519
22.6412
20.9161
6.80779
1.9702
-15.3343
18.7142
20.6634
23.4263
0.443926
24.0106
23.9946
23.9876
-1.98576
23.87
-4.14526
-4.56705
23.6612
-4.10382
23.7569
-12.0693
-12.5501
22.0903
20.1506
21.2387
1.14932
-2.84295
22.0184
1.03835
0.818115
-15.4415
20.6414
21.0491
0.420295
-0.560613
0.641235
0.869878
-18.1947
-18.7025
7.35193
-25.2292
24.4277
24.5738
0.657605
0.438931
23.5138
22.3563
-18.3773
22.2104
23.7557
21.8053
9.81842
11.4057
10.6935
-6.79326
21.8826
4.82785
24.3685
24.6906
22.1855
8.43022
7.77038
19.9754
24.3745
22.8959
22.9585
0.939904
-8.31765
5.89776
6.82711
6.20489
-3.56646
20.3934
-1.34117
24.4921
24.4267
24.5064
6.96963
20.4097
22.135
20.5327
18.923
18.8421
18.638
22.1732
23.2687
23.2153
22.8366
23.2317
23.0193
19.15
24.1112
24.1103
19.9048
18.9468
20.7653
23.0747
23.4901
23.4936
23.4285
16.8794
16.9299
22.7166
22.8896
22.95
24.5261
-26.491
23.6622
21.0947
24.6513
24.6851
23.1651
23.3372
23.1708
23.6418
23.5977
22.1759
22.7006
1.76136
-20.6553
-10.8732
22.8681
-27.005
-25.9134
-12.6322
22.1427
3.04727
21.4332
-0.379129
22.2857
4.1596
22.9873
24.2845
1.46007
24.511
0.339569
0.0155353
1.97794
2.26271
20.0765
23.9338
-2.68235
0.939773
1.20638
21.7185
-11.8215
-11.8556
2.75306
23.9115
20.8972
24.5711
24.4074
24.3758
24.365
24.0574
23.6083
3.55848
22.3937
23.6078
23.5515
20.9367
20.8233
22.7175
22.7283
-2.58712
11.0867
24.2449
24.6064
1.65158
1.68265
22.5161
22.4564
21.071
21.1062
19.0095
1.57747
-14.7562
20.3008
20.9406
20.4402
-0.92552
-0.908224
-0.718598
-0.180006
22.9719
22.8111
2.01815
-12.3889
20.6123
18.547
18.1613
23.368
-1.48351
0.267832
20.279
20.3702
21.6973
-2.90988
-2.72679
18.2268
18.289
23.1224
-5.10614
-6.26309
17.7633
17.9264
19.9891
20.0594
2.18509
1.87699
-0.268544
-3.46433
-3.97785
0.478564
0.41895
21.9097
-0.801116
22.8532
18.1231
-2.51316
22.5187
18.8782
19.1421
-21.6294
-0.506581
21.6662
21.8079
21.0198
21.9954
22.0283
7.21622
22.3538
22.348
22.6496
-0.845286
2.41907
2.30701
23.3194
4.3342
22.7532
-19.8595
-2.36273
-1.85748
-0.0306406
22.1666
22.2341
21.0356
-22.8758
20.143
18.9125
22.0567
-3.37577
-3.30774
22.339
21.8051
21.878
21.9331
21.9872
-24.8067
24.2744
-5.41501
21.8081
18.8041
18.7089
18.8258
22.8062
21.9315
-1.14481
7.34986
6.78079
0.101947
0.185618
-17.3017
22.1516
-17.4181
19.1266
19.1051
7.94611
8.69932
7.78236
-3.5324
-3.38644
-17.2834
-0.166615
19.2922
1.44604
1.55536
1.68011
19.2427
22.302
-1.78206
-2.33428
0.00293035
-2.05339
0.972968
0.561506
1.80175
-3.45844
19.6325
-8.5992
-6.99341
1.50958
1.16441
2.40979
22.3834
22.2152
-0.501906
-12.9475
22.08
18.4536
18.7016
17.7532
17.5086
17.4575
-10.3906
23.4836
22.5844
22.6079
19.0996
20.5825
1.85094
1.76119
2.21947
1.91676
23.5225
23.4953
-2.47647
20.7411
20.7024
19.9447
19.8908
19.4599
20.946
20.816
20.5507
1.05766
1.17525
1.34036
4.7901
2.01101
0.502993
3.5143
-6.54478
-6.32702
23.7934
9.32796
-4.85662
-3.85063
-4.25191
-10.612
-10.207
3.70783
19.5784
19.0877
19.1025
24.5081
0.0277404
21.3926
-10.0986
-10.3159
-10.4093
-10.1703
24.1911
3.12524
2.86017
24.0345
18.4062
-4.92655
0.713763
0.817159
-0.545186
-0.461528
24.64
18.4283
-5.91012
-6.14358
-5.91675
-6.78229
24.359
-1.89378
-2.46893
-1.87879
0.76597
0.734362
-2.82628
19.396
19.275
-0.416012
19.9514
-8.2551
-8.02343
-8.46329
0.464788
23.0177
-0.864661
-0.458973
23.4201
23.365
1.98872
1.63204
7.85958
9.12166
17.7142
17.69
23.2883
-7.63197
18.6581
18.6378
18.3729
18.4832
0.734247
-1.20823
-9.39875
-9.85706
-10.3926
23.8487
23.8477
-5.79987
-6.00558
-5.93713
-9.91587
-8.00875
-12.07
-12.4701
17.8268
-4.71546
-4.46758
24.0411
17.1333
17.6646
17.5893
17.1831
18.4344
18.5566
-1.54794
-2.48431
23.2157
-3.90385
-4.38477
-4.73425
1.79181
1.24223
23.0204
0.747437
21.8664
22.6445
-3.63488
-3.60276
-2.99313
-8.07366
-7.56001
14.8979
14.2327
19.385
19.1367
17.8894
18.5141
18.4079
18.9114
19.3735
19.1822
18.9556
19.3548
17.525
21.33
22.5549
10.8696
-12.1417
-12.2829
-11.9081
23.5874
21.4251
3.67117
3.41126
2.25389
2.35384
2.13946
20.6301
-10.3761
-3.03172
23.5658
0.0142964
-4.76592
17.3691
17.0663
17.0514
-0.558896
22.1844
24.6791
-6.37877
-2.91568
-0.592921
19.3144
19.454
0.912049
-13.2535
-13.7209
22.0911
-5.00519
-9.97291
22.7951
-0.862508
-1.40582
3.59173
3.6735
-0.654194
20.6592
-16.5737
18.7625
21.6537
20.3903
19.9964
0.782331
0.443033
19.2988
19.3267
18.9781
23.2499
23.2254
0.205482
-0.508713
0.971299
1.00046
3.82963
3.57991
24.3966
17.5666
17.7233
23.1102
23.079
2.02752
1.90446
-5.088
-3.05438
-3.03686
-0.250487
-0.541838
0.73605
0.549038
12.5522
0.853074
0.856751
-9.99377
-9.82829
17.7675
17.8339
-6.55001
-6.17352
0.740352
-17.8674
-17.1995
18.0095
17.8258
17.7309
17.6589
-5.87042
-6.19196
2.3173
2.19446
2.04876
1.47723
2.08896
2.32488
21.5118
21.5563
1.56231
1.73914
1.60932
22.374
21.3953
6.53696
7.49386
21.1657
17.4353
17.4125
17.288
0.219979
-6.63305
-5.54349
23.3479
19.302
19.1731
-9.89714
0.867681
22.1295
-1.52677
-1.41293
-3.31671
21.6637
21.8488
4.36595
4.47637
4.85391
4.8624
3.44174
3.37446
-3.28918
-3.31817
-0.223048
-0.418849
0.700916
0.66395
0.692994
4.84399
-8.24811
-1.81474
16.8402
17.083
15.5926
16.5748
18.4813
18.5846
18.5716
3.48008
3.384
18.884
-3.59145
-13.6392
20.2857
1.22015
1.30788
5.85817
0.790027
-0.385484
0.311778
0.499616
17.1729
17.3955
-0.747709
-10.5888
-9.99986
17.9782
2.74868
2.11809
-6.06278
0.648593
0.701143
17.7902
-13.2263
0.484651
-1.50515
-0.392537
-0.174152
18.3815
18.2598
19.4964
18.9282
18.1632
18.5836
4.54772
23.0094
17.2298
17.3534
17.3141
-6.70405
22.0195
-7.18266
-7.62207
-9.78946
1.84172
1.71062
1.99484
3.3524
-5.42241
-6.22447
2.64828
3.14299
2.91568
1.64766
1.37058
1.32715
0.0328549
-0.112779
17.4469
17.3745
21.357
21.4805
21.3773
0.968161
0.885276
1.40562
1.49411
-12.404
-0.62616
5.38155
6.35182
-5.87474
-5.98351
-8.82398
-9.22724
3.23623
3.18981
3.10493
8.8465
8.15952
9.50758
-0.352974
-0.349444
-0.155643
1.62573
1.91629
1.63199
16.6999
17.5397
2.54876
2.41765
2.16038
-10.2068
-9.80526
-10.2443
1.59749
1.50923
-10.5655
-10.8196
-5.30061
-6.77032
-6.64629
18.1389
18.0343
-18.0234
-17.3892
18.0919
17.7839
17.7391
3.16181
-2.81087
-0.270366
17.189
23.9201
0.495126
23.0762
2.85505
2.93493
-9.5516
21.9048
2.78355
1.41885
1.29315
3.08143
3.01419
17.459
17.5521
0.703357
5.45309
5.3037
-5.13569
4.29773
4.04677
3.78836
0.263751
-0.126567
6.05734
3.67718
3.69742
5.15642
5.48223
1.08724
1.3902
18.964
18.9368
2.95835
3.22488
-23.0922
4.01438
4.19444
-4.23229
-5.36199
3.52947
3.51792
5.39696
5.69931
4.30727
4.1842
-2.28232
-2.45589
-2.6464
18.8459
18.9785
19.0952
17.7541
17.91
21.6011
-1.50997
-1.4067
8.08172
-5.11929
-5.21927
1.41822
1.19276
-4.76456
-3.8063
-4.94829
-8.02151
-8.40528
1.57755
1.72135
-0.379306
-0.139846
17.8149
17.0251
-10.112
-9.84368
-8.07329
-8.44403
-8.62396
-7.48516
-7.00417
-8.48078
21.2733
-4.48394
-4.22848
-4.40314
18.8543
18.8695
19.2446
16.5561
16.14
-0.706898
20.0153
19.9682
17.1594
17.0901
1.03643
1.21139
1.29965
3.55619
3.10057
3.06977
17.0915
17.2411
21.6203
21.4406
18.6497
18.2522
18.2872
-2.8026
-3.27369
-6.5361
-14.2038
-13.9062
20.3361
20.303
20.619
23.5962
3.99433
4.44696
4.93736
-0.262777
-0.217816
3.6383
17.8205
18.4299
17.9814
18.53
17.6846
16.8559
17.5533
18.1524
1.36075
1.33302
-5.51905
-4.98201
-5.49135
-3.25276
-2.97661
-21.1392
-2.23997
-2.46232
-9.01433
-1.84401
20.4703
20.4886
-3.84957
-3.47386
-3.47437
1.36753
1.30332
1.12496
1.14525
0.644449
19.6456
2.13601
2.5674
-0.193692
-0.0713001
-0.18711
-14.3096
-13.6997
-12.1391
23.0334
22.8979
-15.8021
-15.2399
0.731999
1.36188
20.9524
21.0477
20.4586
20.9837
-0.605168
-0.576075
-3.70684
-4.16023
-0.117943
-0.327026
-0.619539
17.2135
17.2372
15.8411
0.824527
0.754094
0.786821
-2.88114
-4.67517
-4.52985
-5.12936
0.998191
1.84554
2.52445
2.04787
0.952141
0.860113
0.787005
4.11082
-0.894453
-0.646647
20.1142
8.49282
0.781599
19.941
19.4642
-13.895
21.5225
1.12923
-11.6813
-10.6402
-8.47729
-11.6141
11.5273
7.77831
-1.58515
6.45808
-4.57618
-1.41041
10.0759
5.38412
-17.1815
8.91018
4.56496
-9.1331
6.51434
12.7952
12.143
-7.64445
7.43886
5.47806
10.2513
-8.69663
-15.7485
10.9629
-12.1307
12.0224
6.71865
2.87181
-6.79234
-13.145
11.4093
13.181
6.87805
7.06354
7.02695
15.276
9.90231
-0.761863
-1.66616
-1.82855
-21.3654
10.9496
12.4557
11.9994
2.3364
3.17389
2.64335
3.48729
5.23294
10.5367
-14.2065
-14.4445
-7.41736
7.31896
-11.7243
1.77196
11.4068
-1.64916
-6.65622
11.4159
2.25589
-2.25223
-8.01496
11.8453
12.9362
-29.466
11.3062
-6.57495
0.0863322
15.4652
7.11421
-10.2079
21.169
21.5844
-11.0489
-11.9254
6.94386
8.07297
8.09045
-6.89541
0.00760821
5.38873
2.52741
13.0925
9.88939
13.2402
-4.5878
-4.68851
10.7114
10.2942
10.9876
-19.1951
13.7411
13.6012
-4.62849
-4.91174
2.99651
5.64407
7.4983
8.04125
-13.4508
-14.6617
10.2068
11.0597
13.5034
13.7837
0.0349486
1.07548
-15.1265
-16.142
-0.18763
0.721119
-14.2487
-9.02374
-10.1485
8.5477
8.15291
-12.4165
9.9542
9.0349
4.67895
5.02088
5.97413
6.31741
-13.205
11.5073
8.82159
-0.849556
1.97007
-12.4317
8.27495
-14.8894
-1.43247
15.4519
-1.88202
2.07947
11.1996
6.72384
-0.275823
0.37482
-11.7364
-2.53231
13.8208
2.24066
1.31401
-1.22574
5.87122
-0.361296
-1.31037
8.30109
9.20437
8.92942
6.93433
16.754
-3.40329
14.1736
11.765
12.2839
1.88385
1.09251
16.2072
16.3778
5.2318
-19.8324
-0.351986
0.492428
-10.6034
-10.7173
10.236
10.2348
-8.70099
-9.22757
-10.1907
14.2156
14.4764
9.06352
-27.6459
9.55213
10.9396
11.114
-16.5756
-3.70318
6.93345
-17.6397
5.92662
-21.843
-4.60874
-3.31446
3.20622
2.82435
-14.3841
-1.15164
6.08301
2.77526
2.07448
1.19906
1.92079
10.1877
13.1858
13.4367
16.4462
-2.08788
-2.90693
-12.7192
10.4458
5.60465
-15.1723
7.65067
7.63928
8.08578
1.44237
2.03888
11.0087
6.11893
6.29295
2.58832
2.83138
10.8576
9.98395
3.13016
3.90681
-4.77636
11.8531
11.383
-14.49
2.3136
2.42668
2.10261
2.54724
2.72814
2.61242
-12.4605
-2.57638
1.40337
2.49878
3.35311
5.69061
2.78602
2.42886
12.9074
12.6085
3.41314
-10.677
12.5457
-14.6624
-0.890152
-0.238509
12.6632
12.4269
10.0326
9.50144
-12.4336
6.4518
-4.67855
-4.62184
7.92018
8.8048
5.90741
-0.28358
0.00495067
0.572151
14.0099
14.8666
9.06952
9.44835
10.6202
11.1061
10.9559
11.1864
5.20183
4.4826
-12.8127
-13.0064
-0.936851
-0.686585
-1.40353
-1.60918
21.1726
21.1384
21.3956
11.2934
10.9557
10.9188
5.77468
5.54641
11.5851
11.6294
11.7018
3.66436
2.68545
14.869
13.9599
11.4307
11.2826
11.7032
12.0228
-11.4797
15.7197
15.8614
-0.513009
-1.6866
9.57023
9.30951
4.13214
4.76164
2.39302
3.1213
9.81258
6.62107
1.04584
-6.97306
-7.40934
-12.3915
1.95369
1.59948
2.29734
3.10833
8.85385
-9.45487
-10.279
-9.29381
-1.96786
-0.0729041
0.899948
15.707
16.4232
3.33435
2.70812
12.0251
12.2772
-3.13755
-3.35045
14.137
14.3372
2.74764
3.48879
10.305
10.5288
10.8022
10.5113
9.04532
9.26039
-3.68358
-2.69422
11.5944
11.5021
-16.0476
-14.8923
22.0145
9.14456
9.98267
10.207
-8.60602
-9.29823
-1.57196
-1.40366
-4.7844
5.596
5.60345
2.9747
2.40438
11.4526
11.6382
4.8374
-25.2544
-14.1623
6.27475
8.6997
12.2289
10.4631
-1.03054
4.48784
3.90875
9.76012
10.5127
14.2918
14.8669
14.3418
11.2609
10.7293
-12.2971
-4.00252
10.8752
11.0855
10.8564
11.3368
4.00056
3.76484
3.45174
3.55807
1.92513
4.1467
3.32154
6.72871
5.8579
6.08071
6.07942
-11.5122
-11.545
-11.5556
-6.9729
12.5799