/*--------------------------------*- C++ -*----------------------------------*\
  =========                 |
  \\      /  F ield         | OpenFOAM: The Open Source CFD Toolbox
   \\    /   O peration     | Website:  https://openfoam.org
    \\  /    A nd           | Version:  6
     \\/     M anipulation  |
\*---------------------------------------------------------------------------*/
FoamFile
{
    version     2.0;
    format      ascii;
    class       surfaceScalarField;
    location    "1100";
    object      phi;
}
// * * * * * * * * * * * * * * * * * * * * * * * * * * * * * * * * * * * * * //

dimensions      [0 3 -1 0 0 0 0];

internalField   nonuniform List<scalar> 
44596
(
1.53777
-2.16452
0.626741
1.53777
1.44641
-1.44641
1.93751
-0.491102
-0.0939474
-2.1483
2.10101
-0.563237
1.31148
-1.31148
0.215898
1.81681
-2.21224
0.765829
-0.267223
2.30057
-0.800197
-1.20687
0.800197
1.30081
-0.560957
-1.34485
0.560957
0.750521
-0.594332
-0.825728
0.825728
-1.17061
1.38651
1.1942
0.637226
-1.83142
0.0430675
1.50309
-1.54615
1.42613
-1.42612
-0.147243
-1.67603
1.82327
1.54937
-0.0869689
-1.4624
1.12424
-1.12424
-1.10522
1.10522
1.12424
-1.12424
0.238224
1.2453
-1.48353
1.37164
-1.37164
1.46935
0.0800246
-1.31684
1.31684
0.266878
1.35015
-1.61703
-1.58273
1.58273
0.601319
0.582134
-1.18345
1.94174
-0.515618
-1.25465
-0.218058
1.47271
-1.43029
1.43029
0.706577
1.29323
-0.793322
1.4999
1.47165
-1.7669
0.295246
-1.62248
1.62248
1.05544
-0.817215
1.2467
-1.41715
0.170454
0.96239
-0.962391
1.20212
-1.34937
-2.31176
0.831872
-0.831872
1.0094
-1.09637
1.84127
-1.92824
-1.58844
-0.614276
-0.790533
-0.797907
-0.897762
0.897762
-1.03975
1.08282
1.98058
0.0634188
1.48734
-1.55076
-1.53507
0.135136
1.39993
-1.55076
-0.45849
0.00795424
-1.43824
0.113441
0.211626
0.259652
-1.81041
-1.50725
1.81041
0.529796
-1.20861
1.99914
-1.43824
-0.94358
-0.473569
-1.55885
1.55885
0.896329
-0.390105
-0.506224
-0.814162
0.415336
0.398825
0.70304
-0.113498
-0.589542
-0.00142953
-0.0921167
0.0935463
-0.0596119
-0.0640533
0.123665
0.0613912
1.4417
0.853764
-0.792373
-0.00313294
-1.45927
-1.20655
1.20342
-0.0393389
-0.00362559
0.0429645
0.124316
1.06988
-0.793361
0.554952
0.238409
-1.66238
-0.0136455
-0.349489
0.929192
-0.579703
0.416559
0.595234
-1.01179
0.0481787
-0.882778
0.834599
0.00908546
0.0671008
-0.0761862
-0.0357954
0.00975483
0.0260406
0.0961073
-1.02618
0.930067
0.805345
0.636351
0.710433
-0.608707
-0.101726
1.24562
-0.142445
-1.10317
-0.163079
-1.09488
1.25796
1.5327
-1.69577
-0.0217488
-0.0140466
0.00515681
-0.0444957
-0.935204
-0.727177
-0.0373422
-0.897861
-1.07667
-0.00679405
0.0329449
-0.0261508
-1.30986
-0.14941
-0.441294
-0.868565
0.0104702
-0.803831
-0.803691
-0.679515
-0.6088
-0.325999
0.934799
-1.19965
0.981591
0.000712818
-0.000712819
-1.10215
1.25401
-0.151852
0.251688
0.904752
-1.15644
0.819352
0.069074
-0.888427
0.0166201
0.912572
0.912949
0.898927
-0.48123
0.897789
-0.887014
-0.319535
-1.13136
-0.307625
1.43899
-1.19807
0.260084
0.937985
0.536894
-0.85381
0.316916
1.0561
0.943804
-0.744905
0.7549
-0.00999521
-0.883095
1.05355
0.848631
-0.211405
0.253523
-1.18853
0.935007
-0.9804
-1.02943
-0.283114
0.986155
-0.898195
-1.41356
0.935538
0.308343
-1.24388
-0.00952106
-1.4166
1.14088
-0.205875
1.22238
0.7582
1.07596
0.923972
-0.632385
-1.29586
1.07368
0.171622
-1.10654
-0.876633
-1.85229
0.745751
-1.63693
-0.194492
1.15831
-0.735581
-0.422732
-0.102483
0.802733
-0.70025
-0.952956
0.0843907
0.887124
0.116567
-1.06015
-1.32167
0.420225
-0.91359
0.493365
0.823656
-0.61203
-1.52562
-0.806325
0.332756
0.351988
0.716145
-0.776675
0.0605291
0.809474
-0.696033
0.0484852
-0.0393997
0.0384435
-0.0452375
-0.535377
1.02874
-1.23422
0.69884
-0.00124142
0.00124135
0.865998
-0.879892
0.013894
0.130417
0.00077838
-0.000778483
0.000778332
-1.10003
1.10003
0.862112
0.802834
-0.672417
0.757217
-1.25325
0.496035
-0.720148
0.570153
0.149995
-0.00971501
0.396221
0.457543
-0.566105
-0.237587
-1.55129
1.49402
0.0572699
0.208011
-1.09111
1.5327
0.946381
1.38792
-1.46965
0.0817221
0.00157104
-0.0015711
0.000792519
-1.00431
0.890808
-0.859004
1.15976
-0.300755
0.817507
1.41883
1.29508
-0.712941
-0.638383
-0.37341
0.656693
2.35291
-0.981272
-0.1461
-0.923368
0.231189
-0.64627
0.415081
0.0611146
0.800997
0.285671
-0.875213
1.04391
-0.0623143
-1.18604
0.945785
-0.246945
-0.130881
0.794069
-0.113047
1.2371
-1.35874
1.35891
-0.000170117
-1.0419
-0.504251
-1.53301
-0.767177
0.383618
0.0478243
0.627661
-0.675485
1.20971
-0.153611
-0.149028
1.70676
-0.484226
-1.22254
-0.145531
0.758349
-0.406361
-0.627662
-0.226148
-1.40255
1.33904
1.96578
0.00401364
-0.00308793
-0.000925729
0.00148065
-0.00669729
0.00521665
-0.0281137
0.0281563
-4.2608e-05
0.041
-0.0199845
-0.0210155
-0.00468774
-0.00481267
0.00950041
-0.00963694
0.00494919
-0.0570332
0.0119667
0.0450662
-0.0182811
-0.104688
0.122969
-0.00551689
-0.00531499
0.0108319
-0.0646749
0.0491043
0.0155707
-0.112273
0.0729613
0.0393122
0.0607225
-0.00856392
-0.0521593
0.00615648
-0.00519006
-0.000966418
-0.49898
0.324493
0.174486
0.0190237
0.00160228
-0.020626
0.00683828
-0.00490395
-0.00193432
-0.00122819
0.00122823
0.00380639
-0.00932328
0.0071767
-0.00472323
-0.00245346
0.0195773
-0.0416161
0.0220388
-0.00734313
0.00554812
0.00179501
0.00366663
0.00317165
-0.0501304
0.00400855
0.046122
0.0436133
-0.0454399
0.00182674
0.0108427
0.0135675
-0.0244101
0.0363421
-0.0254994
-0.0549705
0.0108218
0.0441487
-0.0383976
0.0562995
-0.0179019
0.00144711
-0.00144711
-0.00606605
-0.00686837
0.0129344
-0.0108787
-0.0530573
0.0580238
-0.00496885
-0.0084673
-0.0569788
0.0654461
-0.0366442
0.00813273
0.0285115
0.00360271
0.0159266
-0.0195293
-0.00302588
-0.0158064
0.0188323
0.00276287
-0.00276291
0.0136588
-0.0384203
0.0247615
0.00436273
0.00674244
-0.0111052
0.010153
-0.00194243
-0.00821052
-0.0107149
0.0855363
-0.0748214
0.0652964
-0.0760113
0.0515082
0.0222949
-0.0738031
0.0669549
-0.0154467
0.00725328
-0.00297904
-0.00427424
-0.00395521
0.0462909
-0.0423357
0.0613412
0.00926089
0.00976277
0.0190157
0.00608341
-0.0244201
0.0183367
-0.0197802
0.0195094
0.000270855
-0.0078811
-0.0118991
0.056914
-0.05543
-0.00148422
-0.0469208
-0.00851481
0.0554355
-0.00690366
0.00322407
0.0036796
0.00885192
-0.00665226
-0.00219968
-0.0102451
0.0329874
-0.0227423
-0.0509229
0.0424549
0.00979933
-0.0106029
0.00373005
-0.00654392
0.00281388
-0.0171278
-0.0378427
-0.000983405
-0.00438956
0.00537299
-0.0216428
0.0137617
0.0118819
0.00336706
-0.015249
0.00600067
-0.012869
-0.627914
0.301915
-0.0213327
0.0110876
-0.00279909
-0.00121816
0.00401722
0.0218671
-0.0216231
-0.000243924
0.00801304
0.013854
-0.0109667
-0.010366
0.00394385
-0.0149105
0.00683897
-0.0172049
0.00570348
-0.0075273
0.00182384
-0.00223671
-0.0037104
0.00594712
0.000267083
0.00955764
-0.00982472
0.0479202
-0.0370984
0.00952265
-0.0497131
0.0266165
0.0230967
-0.0151078
0.01882
-0.00371224
-0.00326527
0.0161997
0.0113318
-0.00907093
-0.00226088
0.044885
-0.0353624
0.0465987
-0.00171367
-0.0464592
0.0110968
0.0579258
-0.675648
0.617722
0.00506319
0.00378875
-0.00317663
-0.00372702
0.0635555
-0.341476
0.277921
0.171859
-0.502319
0.33046
-0.000427295
-0.00586173
0.00628904
-0.00305998
0.00596308
-0.0029031
0.0248574
-0.0168443
-0.0100426
0.0288644
-0.0188218
-0.0282332
0.0109973
0.0172358
-0.0182553
0.0286645
-0.0104092
-0.0464885
0.0396618
-0.00626069
-0.00461802
-0.0162176
0.0230566
-0.00616211
0.00764276
-0.0051697
0.00677198
0.0144147
-0.0346184
0.0489836
-0.0143652
-0.0548601
0.0202418
-0.00198853
0.0198777
-0.0178891
0.00626222
-0.0191932
0.012931
-0.0622842
-0.0499892
0.262827
-0.586188
0.323361
0.0011514
0.0534502
-0.0546019
0.0580652
0.0448857
-0.372884
-0.126096
-0.0118677
-0.00875825
0.00767516
0.0113477
-0.0190228
-0.142853
0.202928
-0.0600754
-0.0011749
0.00117491
0.0882044
-0.0328976
-0.0553066
-0.00555303
0.00847447
-0.00292145
-0.0501357
-0.0277292
0.0778648
0.00859117
0.00582357
0.0115768
-0.00662188
-0.00495494
0.00667525
0.0128341
0.0129375
0.00267859
0.0101555
0.185749
0.118554
-0.304303
0.019826
0.00611539
-0.0259413
0.00192286
-0.0137906
0.464478
0.124594
-0.589072
-0.749236
-0.133542
-0.00425365
-0.0216877
0.0368148
-0.0038699
0.0325611
0.027606
-0.0222997
-0.00530635
0.0128423
-0.0389931
-0.00766076
0.00140007
-0.00858399
0.000923234
-0.387205
0.483446
-0.0962405
-0.507498
0.497502
0.0228679
0.0334317
0.0401037
0.0518498
0.0124144
-0.0642641
-0.0503518
0.0399427
-0.00136821
0.0408795
-0.000936889
-0.00696033
0.0479282
-0.0409679
-0.0538811
-0.00585758
0.00422801
0.00162957
-0.0757629
0.0256274
-0.00729351
0.0509069
0.0102982
0.00704845
-0.0173467
-0.00830971
-0.0133134
-0.00626495
-0.635688
0.496976
0.138712
-0.0355323
0.0257209
0.00981144
0.000809845
-0.0239922
0.241766
0.236695
-0.47846
0.341092
-0.0993264
0.553611
-0.00808345
-0.000987478
0.00160196
0.00974572
-0.00648149
0.0307946
-0.0322241
0.0338803
-0.0287235
-0.0609476
0.328552
-0.155054
-0.173498
0.00467072
0.00481332
-0.00948401
-0.00574708
0.00870953
-0.00296244
-0.00629532
-0.0136957
0.019991
0.00940266
-0.015698
-0.0117002
0.00521874
0.00109577
-0.012796
0.0112892
-0.00607047
0.029206
0.0226177
-0.0518237
0.0320867
-0.00148226
-0.0306045
-0.0114321
-0.0495155
0.0374132
0.00103028
0.0259812
0.00881176
-0.00149528
-0.00731649
0.00245845
0.00635332
-0.0231741
-0.0197962
0.0429704
0.0133626
0.0175604
-0.0309229
-0.00223575
0.00334915
-0.00640912
-0.00543377
-0.0446966
0.0427746
-0.0231973
0.0055216
-0.00785278
0.00233119
-0.00747601
0.00613303
0.00134298
-0.0262047
0.0121581
-0.00635644
0.0323376
0.0146374
-0.0169449
0.00230752
0.0206381
-0.0193213
0.924073
0.210334
0.592501
-0.441523
-0.186139
-0.0101212
-0.0068237
0.00524724
-0.0153685
0.00855557
-0.0153793
-0.0496037
0.0110312
0.0385725
0.000499384
-0.0568269
0.0563276
0.00825261
0.0191454
-0.027398
-0.0218201
-0.00910281
0.0394085
0.00851976
-0.0103036
-0.0351363
0.0291049
0.00736889
-0.00181778
-0.00555112
0.0061427
0.00122621
-0.00706732
0.00524955
0.0198848
-0.0162821
-0.531063
0.591592
-0.512843
0.594447
-0.0816043
-0.00431563
-0.00731246
0.0116281
0.0260117
-0.0856235
0.0322729
-0.0186141
0.00415928
0.0279846
0.0121546
0.00848346
0.01728
-0.0051254
-0.0146927
0.0231761
0.0799072
-0.0701
-0.00980828
0.00329666
-0.0196541
0.0163574
0.0207943
-0.00795197
0.024091
0.324871
-0.338111
0.0132407
0.00215604
0.00942077
-0.00809472
-0.000489271
-0.00593868
0.0089315
0.498082
0.946413
-1.4445
-0.000787988
0.000788037
-0.570342
-0.0676027
0.637945
-0.819295
1.31738
-0.0013355
9.40229e-05
0.467513
-0.409587
-1.06511
1.06511
0.130653
0.945309
-0.885545
0.654076
0.231469
-0.407517
-0.478028
1.23945
-0.261177
-0.978269
0.114498
-0.058813
-0.0556851
-0.528209
-0.107478
-0.103243
-0.424966
-0.830457
0.926564
0.184938
0.313253
-0.498191
0.370687
0.0433356
0.648918
-0.692254
0.483136
-0.4398
0.0695355
-0.0176869
0.602032
-0.621353
0.536866
0.0651653
0.13666
-0.110648
0.484228
-0.235945
-0.248282
0.19661
0.287618
0.00359378
-0.00389452
0.000300744
-1.01622
-0.144794
0.576896
-0.432102
-0.000547322
0.000547345
0.399931
-0.944591
0.544661
-0.554197
0.602021
-0.308628
0.594299
0.0811714
0.0554884
-0.608482
-0.218642
0.827124
-0.0601764
-0.022071
0.0822467
0.00935814
-0.156884
0.00874185
0.148142
0.644361
-0.700982
0.0924995
-0.328418
-0.372564
-0.692638
0.36422
-0.918893
0.0461134
-0.998266
0.751321
-0.163667
-0.440067
-0.235581
-0.63862
0.412472
-0.130411
0.353034
-0.894378
0.504272
-0.609583
-0.284795
0.000572838
-0.000572832
0.00108868
-0.00377161
0.00268291
1.03642
-0.1493
-0.0113723
-0.670874
0.682246
0.944189
-0.618344
-0.325846
0.334606
0.219192
-0.700422
0.661658
-0.0883251
-0.573334
0.88088
0.738435
-0.314461
0.714392
0.0303358
0.0752217
0.018243
-0.186509
0.227421
-0.0409119
0.219599
0.424763
-1.15364
1.15364
-0.490484
-0.202154
-0.752808
-0.273367
0.832819
-0.328547
0.0800108
0.273366
0.194146
-0.00374284
0.00219651
0.00154633
0.793713
-0.530886
0.303229
-0.0250158
-0.0890691
-0.00853311
0.00259444
0.81223
-0.957025
-0.455712
2.01456
1.0383
-0.541815
0.359689
0.182126
-0.268449
-0.325618
-0.332425
0.658043
0.0367195
0.247055
-1.50031
0.861244
-0.614188
-0.0833505
-0.255321
0.338671
-0.269859
1.20157
-0.0589039
0.0417761
-0.036609
-0.619442
-0.211015
1.07446
0.249109
-0.579627
0.330519
-0.83084
-0.581732
-0.801734
0.254929
-1.05666
-0.00978708
-0.013084
0.0538709
0.0633266
-0.943218
0.712245
-0.000384348
0.000957194
1.22238
-0.682708
1.90509
0.225044
1.03836
-0.813319
0.93512
-0.925429
-0.0907952
-0.290753
-0.288875
0.644046
-0.0188928
0.00420014
-0.0165853
-0.0276622
0.011077
0.110755
-0.647621
0.72337
-0.0757487
0.298404
-0.605765
0.985328
-0.379562
-0.0288695
0.783361
1.04233
-1.18787
0.00623514
-0.631139
0.26665
-0.142221
-0.00358426
0.0267604
0.0431942
0.184227
-0.0674538
1.27186
0.211023
0.849124
0.0448835
-0.0533983
-0.0105465
0.0103783
-0.0994473
-0.0752452
-0.142699
-0.0226198
-0.0620194
0.41895
-0.494699
0.510338
-0.091388
0.349234
0.161104
0.422231
-1.34169
0.158213
0.039828
-0.487645
-0.158624
-0.447817
0.577076
0.040646
-0.447293
0.288668
-0.0987202
-0.348572
-0.354041
1.13962
0.130772
0.827174
-0.696402
0.565997
-0.000550867
-0.000237106
0.00468247
-0.782011
-0.457518
-0.59106
0.022415
1.39455
0.711843
-0.757802
-0.00781492
0.00938893
-0.00157401
0.00287727
-0.0106922
0.00138626
0.00467751
-0.00606377
-0.00530115
-0.00664802
0.0119492
-0.150791
0.264844
-0.114053
0.00487039
-0.00413412
-0.000736266
0.00746472
-0.00184809
-0.00561662
-0.0062587
0.0038826
0.0023761
-0.00437235
0.00381297
0.000559385
-0.0142926
0.0143061
-1.34719e-05
0.0118257
-0.00222649
-0.00959923
0.00305324
0.00877247
-0.016488
0.00499445
0.0114935
0.00692342
-0.00268774
-0.00423568
0.00272451
0.00419892
-0.0132984
0.00496433
0.00833411
0.00537775
-0.0186762
-0.00347559
-0.00444076
0.00791635
-0.00854496
-0.00165215
0.0101971
0.0017333
0.00796562
-0.00969892
0.00433681
0.00211974
-0.00645653
0.00461767
-0.00773477
0.0031171
0.00844201
-0.00965184
0.00120983
0.00157994
0.00686207
-0.00746977
0.00494098
0.00252879
-0.00478714
-0.00268263
0.00244466
-0.0071375
0.00469283
-0.00161711
0.00997886
-0.00836174
-0.00231048
0.00415928
-0.0018488
-0.00327972
0.00197732
0.0013024
-0.00324698
-0.00273113
0.00597813
0.0046326
-0.0078796
-0.00286274
0.0101528
-0.00729008
-0.00753401
0.00227803
0.00525599
-0.00162033
-0.00591369
0.00290182
-0.00687239
0.00397056
0.00188812
0.00415565
-0.00604374
0.00759447
-0.00765883
6.43602e-05
0.00324196
-0.00275624
-0.000485719
0.00367808
0.00320695
-0.00688502
0.003563
-0.0047289
0.00116592
-0.00647758
0.00300199
0.00721472
0.000519215
-0.00773393
0.00408446
0.00313027
0.0035092
0.00767513
-0.0111843
0.00847786
-0.0099692
0.00149134
0.0100444
-0.00102393
-0.00902043
-0.00874582
0.000332533
0.00841331
-0.00804673
-0.00066373
0.00871051
-0.00444971
0.00689437
0.00804477
-0.0116406
0.00359578
-0.0132182
-0.00107444
-0.00719245
-0.00602571
-0.0244842
0.019766
0.00471822
-0.00718149
-0.333788
0.34097
-0.00894728
0.00449542
0.00445186
-0.00594417
0.00744914
-0.00150497
0.185335
-0.192517
-0.00470789
-0.00540186
0.0101097
-0.00943011
0.00143555
0.00799456
-0.00262365
-0.00680646
0.0194385
-0.00546121
-0.0139772
-0.00746247
0.0269009
0.00801168
-0.00234357
-0.0056681
0.00300291
0.00500877
-0.00716436
0.011249
-0.00408459
0.00552199
-0.00809152
0.00256953
0.00847906
-0.00575455
-0.0011694
0.0118244
-0.010655
0.00469737
-0.00613426
0.00143689
0.00915377
-0.0121099
0.00295618
0.00852894
-0.00852883
0.00213424
0.0156998
-0.017834
-0.0101845
0.00561592
0.00456856
-0.00924144
0.00337462
0.00586682
0.0083136
-0.00831359
0.00813255
-0.00813254
0.000312114
0.00790599
-0.0082181
0.0323609
-0.0137387
-0.0186226
-0.00403444
-0.00616545
0.0101999
0.00625591
-0.00572804
-0.000527834
-0.0221223
0.00583221
0.0162901
0.010814
-0.0329363
0.00359716
0.00479333
-0.00839049
0.00451738
0.00163911
-0.00258042
-0.0044869
-0.0035197
0.0154016
-0.00434494
-0.00518037
0.00952531
0.00522433
-0.00316489
-0.00205944
-0.00541817
-0.00194019
0.00735836
-0.0115561
0.0046412
0.00691489
-0.0110786
0.00751574
0.00356283
-0.00441265
0.00706876
-0.00265611
0.000272039
-0.00468469
0.0118577
-0.00940844
-0.00244926
0.0095243
0.00136072
-0.010885
-0.00873561
-0.00114253
0.00987814
-0.00515676
-0.00357885
-0.00143438
-0.00706261
0.00849699
0.00209476
-0.00691092
0.00481616
-0.000411181
0.00579068
-0.0053795
-0.00092185
0.00569421
-0.00477236
-0.00398572
-0.00418899
0.00817471
0.00910498
-0.00462392
-0.00448106
-0.0117382
-0.00234573
0.0140838
0.0125399
-0.0066478
-0.00589206
0.00538232
0.00649051
-0.0118728
-0.00690252
0.00696548
-6.29585e-05
-0.00621529
0.00693579
-0.000720513
-0.00765236
0.0117383
-0.00408597
0.00726548
-0.000253265
-0.00701222
0.00816408
0.000200848
-0.00836493
0.00960091
-0.00276833
-0.00683258
0.00165729
-0.00696921
0.00531192
0.00207782
-0.00712078
0.00504297
0.00574446
-0.00157827
0.00660156
-0.00502328
-0.00790051
0.000803201
0.00709731
-0.0181553
0.0259261
-0.00777082
0.00178248
-0.00535727
0.00357479
0.00315432
0.00464269
-0.007797
-0.00645368
-0.00385642
0.0103101
0.00293481
-0.00938849
0.00599083
-0.00041708
-0.00557375
0.00813127
-0.00214043
0.0207566
0.0116043
0.00482762
0.0040985
-0.00892612
0.0104619
-0.010235
-0.000226934
0.00998244
-0.00998239
0.00581031
0.00341673
-0.00922704
-0.00551557
-0.00200932
0.00752489
0.0145596
0.0243593
-0.0389188
-0.00274967
0.00821199
-0.00546232
0.00135614
0.00643714
-0.00779328
0.0160021
-0.0135993
-0.00240285
-0.00439813
0.00113699
0.00326113
0.00825792
0.00260215
-0.01086
-0.00300004
0.00654791
-0.00354787
0.00711947
0.00503138
-0.0121508
0.00113746
0.00624055
-0.00737801
-0.0031065
-0.00614544
0.00925194
0.000620174
0.0067575
-0.00737768
-0.0274215
0.0450404
-0.0176189
0.0344696
-0.0618911
-0.00863838
0.00155122
0.00708716
-0.00468027
-0.0039581
-0.0094634
-0.00196928
0.0114327
0.00804407
-0.00450276
-0.00354132
-0.0116235
0.00663048
0.004993
-0.00716868
0.0107659
-0.00359726
0.00159433
-0.00723994
0.00564561
-0.00314038
-0.00297421
0.00611459
-0.00844223
0.00131944
0.00712278
0.00147322
0.00191487
-0.00338809
-0.00289122
-0.00148112
-0.0022647
-0.00614058
0.00840527
0.00973797
-0.00860378
-0.00113419
0.00942008
-0.0108545
0.0106797
-0.00822122
0.000497735
0.00444683
-0.00494456
0.00609244
-0.00559471
-0.0248332
0.0321877
-0.00735446
-0.0193235
-0.00550972
0.00249379
0.00566847
-0.00816225
-0.00909684
0.00920879
-0.000111947
-0.00529249
-0.00380435
0.0100951
-0.00692305
-0.00317209
0.0063578
-0.0111449
0.000960999
-0.00820454
0.00724354
-0.00404637
0.00755557
0.00627091
-0.0103173
-0.00837789
-0.00470244
0.0130803
-0.00699426
-0.00409329
0.0110876
-0.0123774
0.0053148
-0.00783624
0.00385052
0.00147508
0.00404827
-0.00552334
0.00507433
-0.005619
0.000544667
0.00300469
0.00206964
-0.00105119
0.0081272
-0.007076
0.0056578
-0.00727813
0.028166
-0.00103768
-0.0271282
0.0442233
-0.0160573
-0.0325253
-0.00589496
0.0101032
-0.00866817
-0.00143508
0.00699674
0.00790179
-0.00565217
-0.00224961
0.00164309
-0.0100811
0.00442895
0.00147744
-0.0165852
0.00553729
0.00348672
-0.00902401
-0.0077529
0.0093711
-0.0016182
-0.0061209
-0.00157367
0.00769457
0.00307512
0.00705722
-0.0101323
0.00652176
-0.00528296
-0.00123879
0.00356273
0.00222436
-0.00578707
-0.0206993
-0.028018
0.0487173
0.00701681
-0.00976648
-0.00558954
0.0112252
-0.00563569
-0.00830093
0.00184826
0.00645267
-0.000402139
-0.00941937
0.0098215
0.0100137
0.00106754
-0.0110813
0.00394334
0.00338174
-0.00732509
0.007833
-0.0101721
0.00233906
0.00606501
0.00068058
-0.00674558
0.130215
-0.0479901
-0.082225
8.20804e-05
0.00951883
0.00824616
0.0104169
0.00445908
-0.014876
-0.005175
0.0109206
-0.00574563
0.00195007
0.00568421
-0.00763428
-0.00793276
0.00335289
0.00457986
-0.00091695
-0.00598557
-0.0085796
0.0184266
-0.00984697
-0.00341464
-0.00509367
0.00850831
-0.00193019
0.00977807
-0.00784787
0.00468215
0.00801278
-0.0126949
0.00836204
-0.00948209
0.00112005
0.0112017
-0.00814846
0.0103543
-0.00742689
-0.00292741
0.002784
-0.00965754
0.00687353
-0.00421608
0.00700008
0.000604276
0.00668901
-0.00729329
0.010557
-0.00587482
0.0053098
0.00436178
-0.00967158
0.00588334
0.0024787
-0.0037946
0.00967794
0.0104915
-0.00677171
0.00977462
0.00719093
-0.00428911
-0.0016626
0.00878207
-0.0107072
0.0078445
-0.021388
0.00525115
0.0161368
-0.0136827
-0.00770527
-0.0103974
0.00789307
0.00250433
-0.00962791
-0.000769507
0.000217807
0.00531745
-0.00553526
0.00207618
-0.00662393
0.00454776
0.0334325
0.0216808
-0.0551131
-0.0331098
-0.0190496
0.00032269
0.00247953
0.00324592
-0.00572545
0.00449076
0.000379629
-0.0039282
0.0125202
-0.00859203
0.00158483
-0.007375
0.00579017
-0.010685
0.0068818
0.00380316
-0.00660527
0.00235937
0.0042459
-0.00584291
0.00732566
-0.00148273
0.00439876
0.0133566
-0.0177553
0.00977651
0.00557433
0.00778224
-0.00622554
0.0106792
-0.00445369
-0.00750822
-0.00340929
0.0109175
-0.00424691
-0.00432694
0.00857385
-0.0022646
-0.00621514
0.00847974
0.00215655
-0.00878911
0.00663255
0.00776002
-0.0105284
0.016255
-0.00522016
-0.0110349
0.00937996
0.00486491
-0.0142449
0.00857498
-0.0332663
0.0246914
0.00120734
-0.00938198
0.00817464
-0.00516903
0.0113049
-0.00613591
0.00884291
-0.00101437
-0.00782853
-0.00113595
-0.00835317
0.00948912
0.00877343
-0.00750766
-0.00126573
0.000726712
0.000935114
0.00282764
-0.00376276
0.013163
-0.003783
0.00611584
0.00704714
0.012472
0.00169492
-0.0067686
0.00507369
-0.006141
0.00686256
-0.000721565
-0.00198619
-0.00415481
-0.000773025
-0.00852473
0.00929776
0.00904096
-0.00417605
-0.00175638
-0.0100837
0.0118401
-0.0103483
0.00859187
-0.00490848
0.00942142
-0.00451295
-0.00677106
-0.00300435
0.00977541
-0.0173773
0.012002
0.0053753
0.0110201
-0.014328
0.00330785
-0.0394014
-0.0176319
0.074879
0.0553361
0.0109923
-0.00256519
-0.00842708
0.0186793
-0.0125959
0.00926077
0.00928283
-0.0185436
0.0103101
-0.00781633
0.00231339
0.00799673
-0.00643151
0.00874489
-0.0046877
-0.00715808
0.0118458
-0.00326023
-0.00293351
0.00619375
-0.0371804
0.0206621
0.0165183
0.0319138
-0.0291125
-0.00280123
-0.00182733
-0.00205064
0.00387797
-0.0355025
0.0232278
0.0122746
0.00567876
-0.0253294
0.0196507
0.000202897
-0.0112606
0.0110577
0.00165681
-0.0120987
0.0104419
-0.0132953
0.00638605
0.00690925
-0.00408323
0.00751754
-0.00343431
-0.00542093
0.0108033
0.00711893
-0.00200462
0.00637804
-0.00437341
0.00248288
0.00387647
-0.00635931
-0.00726805
-0.00192285
0.0091909
0.00345926
-0.00615809
0.00269884
-0.00194747
0.0119176
-0.00997014
0.00684526
0.00696923
-0.0138145
-0.00210944
-0.00814017
0.0102496
0.00520874
-0.00958259
0.00437384
0.00519325
-0.0045572
-0.000636051
-0.00192825
-0.00472401
0.00326501
-0.00567821
0.00526703
-0.00809066
0.00731763
-0.00787661
0.00061256
0.00726405
-0.00852425
0.00887371
-0.000349465
-0.0063677
-0.00390099
-0.00847643
-0.0108953
-0.00265265
-0.00743106
-0.010305
-0.00134449
-0.00608657
0.00512659
-0.00677332
0.00164672
0.00720277
0.000609792
-0.0047439
0.0086305
-0.00869154
6.10447e-05
0.00225693
0.00637357
-0.0111271
0.00302463
0.0081025
-0.00559808
-0.00516132
0.0107594
-0.0199342
0.0114233
0.00851088
-0.0132247
-0.00670945
-0.00411479
0.0103845
-0.0062697
0.00504642
0.00639366
-0.0114401
0.00168813
-0.00864037
0.00695224
0.0254413
0.0075462
0.0311201
0.142783
-0.239023
-0.191005
-0.00179426
-0.00657832
0.00837259
-0.00585312
0.00405887
-0.00597931
0.0117443
-0.00576497
-0.0018312
0.00368172
-0.00185052
0.017205
-0.0139196
-0.00328541
0.000767687
-0.00567162
-0.008446
-0.0351086
0.0435546
0.0335537
-0.0419998
0.0107676
-0.0193537
0.0085861
0.00518519
0.00574538
-0.0109306
0.0191258
-0.0118857
-0.00724017
-0.0105168
0.017192
-0.00667514
-0.0121534
0.0267017
-0.0145483
0.0160029
0.0320709
-0.00536914
0.00366681
0.0041592
-0.00782601
0.0187723
0.0222278
0.0392543
-0.0210865
-0.0181679
0.00939312
-0.0112916
0.00189844
-0.00854222
0.00967245
-0.00113023
-0.0230861
-0.00224332
-0.0119985
-0.0182718
0.0160285
0.0168647
-0.0138698
-0.00299488
-0.0291174
-0.0357082
0.0648257
-0.0643724
0.0374495
0.0269229
0.016364
0.000321741
-0.0166857
-0.00751292
0.00412282
0.00339012
0.00296179
-0.00488328
0.00192149
0.00296134
0.00246124
-0.00542258
0.00592313
0.0055031
-0.00134032
-0.00416281
0.00335648
-0.00427833
-0.00324879
0.00390978
-0.00741232
0.00350255
0.00713385
-0.010013
0.00865388
0.00135908
-0.00630908
-0.00370388
-0.00253795
-0.00647878
0.00901673
0.000787959
0.00825053
-0.00903849
0.00942227
-0.00863432
-0.00157233
0.0109924
0.00910733
8.29361e-05
0.00486903
-0.00495196
-0.00421764
0.00430058
0.0117012
0.00272883
-0.01443
-0.00423873
-0.0139166
-0.0111878
-0.00185426
-0.00749935
0.00935361
0.00580025
-0.00765451
-0.00134213
-0.00615721
0.00136725
-0.0105342
0.00916691
0.00428419
0.00553044
-0.00981463
0.00990018
-0.00469143
-0.0038107
0.00402828
-0.000217573
0.00974424
-0.00428711
-0.00545713
-0.00748392
0.00748392
-0.015724
-0.0221974
0.0379214
-0.00757962
0.00689631
0.000683367
-0.00409848
-0.00175462
0.0260725
0.00327879
-0.0293513
0.0130309
0.0130415
-0.0220451
0.0253239
0.00619211
-0.00406694
-0.00212517
-0.00165198
-0.0051768
0.00682877
0.00454014
-0.00770799
-0.0038481
0.0108315
0.0060332
-0.000973912
0.0118054
-0.00920459
0.0152378
0.0106696
0.000645899
-0.0113155
0.00524141
0.00542816
-0.0136533
0.0142992
-0.00540647
0.0069913
0.00554114
0.00516031
-0.0107015
-0.00553744
-0.00390719
0.00944448
-0.00176946
0.00430114
-0.00253168
0.00299732
-0.00672604
0.00372872
0.0148605
0.00136784
-0.0162283
0.00357797
-0.011187
0.00760898
-0.00332
-0.00316144
0.00648143
-0.00608881
0.00596117
0.000127642
-0.0489143
0.0672292
-0.0183148
0.00578018
-0.00981463
0.00907
-0.00298973
-0.00608027
0.00156178
0.0519842
-0.0434606
-0.00852368
0.00367627
0.0022615
-0.00593777
0.0051872
-0.00151093
0.00618906
-0.00392756
0.00846341
-0.0221461
-0.04471
0.0260271
0.018683
0.0378194
-0.0150766
-0.0227429
-0.0207936
0.0234734
-0.00267976
0.0201564
-0.000383037
-0.0197734
0.00887467
0.00543139
0.0105315
-0.00709335
0.0125247
-0.0272018
0.012388
0.0148138
0.00847669
-0.00946883
0.000992137
0.00312553
0.00535116
-0.00631912
-0.00392383
0.010243
0.00552096
0.00581769
-0.00961229
-0.00227688
-0.00557912
0.007856
-0.00946418
0.00475708
0.0047071
-0.0117411
0.00258517
-0.0104707
0.0078855
-0.00931099
0.00689329
0.0024177
-0.00672582
0.00373655
-0.00627472
0.00253819
0.00249463
-0.0101996
0.00770494
-0.00351384
0.00351384
-0.000855944
0.0074995
-0.00664355
0.00215739
0.00589816
-0.00805556
0.0188411
0.0204133
0.00159915
0.00866492
-0.0102641
-0.00334794
0.00334792
0.00376011
0.00341659
-0.00218958
0.0059497
-0.00896062
0.0103279
0.00095735
-0.00593986
0.0049825
0.00595339
-0.00126292
-0.00469047
0.00691075
0.00368262
0.00329016
-0.00697278
-0.00326006
0.0068906
-0.00363055
-0.00561284
0.00578232
-0.000169481
0.00608065
-5.28721e-05
-0.00602777
-0.00600654
-0.00489638
0.0109029
-0.00986295
0.00179079
0.00472988
-0.00652067
-0.00901697
0.0213914
-0.0123744
0.00150611
0.00670504
-0.00821115
0.00797682
-0.00647071
0.00260568
-0.00260568
0.0076381
0.00321419
-0.0108523
0.00333027
0.00430783
-0.00426938
0.00748357
0.00994267
-0.00768574
0.00205388
0.00795985
0.0100987
0.00755771
0.00954526
-0.00618947
-0.00335579
0.000702859
-0.00834845
0.00764561
0.00802362
-0.00732075
-0.00149133
0.00773578
-0.00624445
0.00486714
-0.00635847
0.00490621
0.00107397
-0.00598018
0.0183387
-0.0157944
-0.00254424
-0.00782182
0.019687
-0.0118652
0.0282025
-0.0107667
-0.0174358
0.0262067
0.00199583
0.0213042
-0.00866912
0.00197183
0.000179126
0.00709613
-0.00727526
0.00658754
-0.00623623
-0.00035132
0.0110796
-0.00771252
0.00234219
-0.0107201
0.0134218
0.00249162
-0.00249163
0.00451525
-0.00539874
0.000883497
-0.00679394
0.0088887
0.00804123
-0.0106649
0.0226768
-0.00811726
0.00667443
-0.0241103
-0.0322275
0.00909953
-0.00240162
-0.00669792
0.00266802
-0.00899635
-0.000153765
0.00915011
-0.00936518
0.00974088
-0.000375689
0.0314314
0.00200027
-0.00528918
0.00528915
-0.0057977
0.00606974
-0.00656346
0.00498518
-0.0325984
-0.00204834
0.0346467
-0.0126944
-0.0199039
0.0338657
-0.035914
0.00565197
-0.00565214
-0.0184377
-0.00798074
0.0264185
-0.0252231
0.0166379
0.00858515
0.00175472
-0.00175472
0.00331993
-0.00332002
0.00552605
-0.000893474
0.00337401
0.00268966
-0.00606366
0.00484908
0.00447213
0.00549938
0.00211439
-0.00761377
0.00159348
0.00578739
-0.00738087
0.00125062
0.00692544
-0.00817606
-0.0387347
0.0202969
0.00377389
0.00345337
-0.00722726
0.00592484
-0.00709017
0.00116533
-0.00391163
0.00640444
-0.00249282
0.00201321
0.00710177
-0.00609678
-0.00100499
0.00325944
0.00384233
-0.00665337
7.50597e-05
-0.0023232
0.00232303
-0.0230425
0.0409635
-0.017921
-0.0338222
0.0106718
0.0231505
-0.0301501
-0.00367211
0.03623
-0.0255582
0.00649936
-0.00185816
0.00108118
-0.0075689
-0.00412926
0.0116982
-0.0114971
0.00869125
-0.0128205
0.0208093
-0.0149676
-0.00584173
-0.000833492
-0.0321074
0.0171398
0.00733978
-0.00377705
-0.00257211
0.00257211
0.00830026
-0.0153936
-0.00994539
-0.00262588
0.0125713
0.026351
-0.0328929
0.00654183
-0.0104269
0.0367779
-0.00259494
0.00879048
-0.00619554
-0.0100616
0.00746668
-0.00358549
0.0070362
-0.00345071
0.00362302
-0.0058364
0.00221338
-0.0121994
0.0124023
-0.00759787
0.00150109
-0.00273073
-0.00694113
0.00142305
0.00772808
-0.00915112
0.00752005
-0.006097
-0.0149178
0.0165367
-0.00161884
0.00627085
-0.0147972
0.00852634
0.00707698
-0.0100667
-0.00225766
0.00225762
0.00123336
-0.00123336
0.0165769
-0.0137202
-0.00285667
0.00747027
-0.00561371
-0.0018565
0.008145
-0.000674699
-0.00789709
0.00173164
-0.00370903
-0.00418807
-0.00711163
0.00379163
-0.00424422
-0.00749684
-0.00953671
8.61266e-06
-0.00442267
0.00441407
-0.0371461
0.0161842
0.0209619
-0.0271347
-0.00836772
0.000757785
-0.00660069
0.00662467
-0.000544006
-0.00353999
-0.00551673
0.00905672
0.00391279
0.00995733
-0.0138701
0.00753684
0.00317888
-0.0107157
0.00382589
-0.00612488
0.00229898
-0.000784097
0.00460999
-0.00301908
0.0073818
0.00713387
-0.000422476
0.0141074
-0.0136849
-0.0153403
-0.00196187
0.00196188
0.000244051
-0.00220592
-0.0129289
0.00770877
-0.00547556
0.00659154
-0.00111598
-0.000282981
-0.00519258
0.00187113
-0.00187113
0.000125685
-0.00559032
0.00546464
-0.004417
0.00689652
0.00693654
-0.00742843
0.000491893
-0.0284444