/*--------------------------------*- C++ -*----------------------------------*\
  =========                 |
  \\      /  F ield         | OpenFOAM: The Open Source CFD Toolbox
   \\    /   O peration     | Website:  https://openfoam.org
    \\  /    A nd           | Version:  6
     \\/     M anipulation  |
\*---------------------------------------------------------------------------*/
FoamFile
{
    version     2.0;
    format      ascii;
    class       volVectorField;
    location    "1100";
    object      U;
}
// * * * * * * * * * * * * * * * * * * * * * * * * * * * * * * * * * * * * * //

dimensions      [0 1 -1 0 0 0 0];

internalField   nonuniform List<vector> 
29874
(
(7.53175 0.0630117 1.07346e-16)
(5.39262 0.0282733 -9.8916e-17)
(5.42394 -0.121065 1.97455e-16)
(7.10968 -0.0801456 -1.15975e-16)
(7.81237 -0.118094 0)
(7.43077 0.004861 -9.70492e-17)
(4.78068 0.0948204 6.1856e-18)
(7.1241 0.0172013 2.43846e-18)
(7.44879 -0.00419095 -1.29994e-17)
(7.19173 0.211781 -1.63581e-17)
(7.20597 -0.115509 0)
(7.23684 0.103678 -3.56273e-17)
(4.44818 -0.0539183 9.23923e-17)
(8.27299 0.049385 0)
(6.72885 0.20332 1.06257e-16)
(6.6116 0.137473 0)
(4.26437 -0.0200826 0)
(7.80735 0.212278 -1.38893e-16)
(4.9617 -0.0407603 -1.42823e-16)
(7.99514 -0.0695635 -3.61013e-18)
(7.1189 -0.0228874 3.5307e-17)
(7.0711 -0.0257353 7.46769e-18)
(7.03523 0.0587756 -9.50806e-17)
(7.52423 0.0360906 0)
(5.75812 0.294115 0)
(7.77259 -0.00866238 -2.63302e-17)
(7.97243 -0.0423294 -8.87821e-17)
(5.06874 0.120133 1.2238e-16)
(5.32769 0.123135 2.26183e-17)
(4.94582 -0.117923 4.67738e-17)
(8.06856 -0.0932634 -2.75608e-17)
(5.33699 -0.0984341 -2.65508e-16)
(7.85558 0.0557526 0)
(5.18891 -0.0334264 -8.20433e-17)
(7.39774 0.129973 3.35846e-17)
(5.48544 0.109095 -1.49794e-17)
(7.04468 -0.00424232 0)
(7.28895 0.313565 -7.79042e-18)
(7.51687 -0.101958 -6.28922e-17)
(5.35403 0.023795 0)
(7.0004 0.0103517 -4.0153e-17)
(7.02988 -0.0196069 8.18934e-17)
(7.30981 0.00772343 0)
(5.62963 0.0456014 -9.60009e-18)
(8.02719 -0.132377 8.10686e-17)
(7.44063 0.048638 0)
(4.74874 -0.15006 0)
(8.48871 0.0412493 0)
(7.25938 -0.0598778 4.32263e-18)
(7.17401 -0.112969 -6.00166e-17)
(4.48982 0.140975 -9.3018e-17)
(7.88427 -0.098474 0)
(6.77926 -0.000349013 -4.45327e-17)
(6.60755 0.0706176 4.0142e-17)
(7.67639 0.158299 -1.84272e-17)
(7.72103 -0.00862815 5.20509e-17)
(4.68712 -0.0785859 0)
(8.1464 0.0316263 0)
(7.1231 -0.0635251 0)
(7.04394 0.0836425 -7.56681e-18)
(7.27233 -0.129435 1.13927e-18)
(7.23734 0.0150992 -7.40189e-17)
(7.22271 -0.233216 -1.15375e-18)
(7.48604 0.0145155 0)
(5.81306 0.0536459 -4.48051e-17)
(7.46983 0.0311701 -3.68361e-17)
(7.75635 0.14376 -1.87445e-20)
(7.60972 0.00830553 7.25695e-17)
(7.64855 -0.091969 3.88305e-17)
(7.4984 -0.0798017 3.79059e-17)
(8.25151 -0.138927 3.83678e-17)
(7.61461 0.0174496 5.08254e-17)
(7.53144 0.104002 -3.24088e-16)
(5.65336 -0.133045 4.01854e-16)
(7.04208 -0.128861 3.93558e-17)
(8.07346 0.122477 0)
(7.81073 -0.108328 -1.6703e-17)
(8.011 -0.0980462 1.6837e-17)
(5.00221 0.111926 6.43665e-16)
(7.36182 0.0984297 -1.79292e-16)
(5.38172 -0.0938558 -9.16737e-17)
(7.1147 -0.14772 1.0885e-18)
(6.969 0.152816 0)
(7.43285 0.191574 -3.61377e-17)
(4.66031 -0.375381 0)
(5.11583 -0.229547 -3.92999e-17)
(7.36254 0.00799451 -9.0999e-19)
(7.03499 0.0401008 2.12791e-17)
(7.94475 -0.105047 9.51212e-17)
(7.55057 -0.0636581 5.06049e-17)
(3.86778 -0.707391 -4.31918e-18)
(7.00582 0.0766853 4.72472e-17)
(6.95796 0.129637 -2.72651e-17)
(7.46571 -0.0326006 2.87458e-17)
(7.20809 -0.123306 0)
(6.69238 0.0960156 0)
(7.10147 -0.224317 -1.90238e-17)
(4.67927 -0.0164737 8.62971e-18)
(3.5434 -0.574203 -2.12067e-17)
(6.49121 -0.059883 1.22735e-17)
(7.52354 0.0485261 -2.31903e-18)
(7.01976 0.0924807 1.2513e-17)
(6.99098 0.0890785 0)
(7.3605 0.0828293 -8.07194e-17)
(7.10937 0.0913946 -6.06505e-17)
(3.58449 -0.404927 3.88473e-17)
(3.98927 -0.522436 -2.94444e-17)
(7.50463 0.00864862 5.68734e-18)
(7.59331 0.0147403 0)
(7.25154 -0.128357 -8.58148e-18)
(3.93587 0.119798 -2.66198e-17)
(7.94715 -0.169795 8.34241e-17)
(8.00591 -0.171078 -8.93916e-17)
(6.96938 0.11832 0)
(6.97528 0.130988 0)
(6.9847 0.101141 -5.46054e-17)
(6.88485 -0.299867 8.17587e-18)
(7.23762 -0.179921 1.01596e-16)
(0.434407 0.0823698 -6.50775e-17)
(7.04364 0.083763 2.44035e-17)
(6.97647 0.128328 4.14806e-17)
(8.23489 -0.194316 -1.21629e-16)
(7.20239 -0.101502 -1.20151e-19)
(7.14686 -0.134541 4.37888e-18)
(7.2555 -0.130688 8.05195e-18)
(6.65714 0.155566 -4.37445e-18)
(7.47528 -0.1393 0)
(7.20768 0.230173 -1.96858e-17)
(7.02468 0.107533 -4.79835e-17)
(6.5717 -0.268276 4.06862e-17)
(6.99954 0.00689167 0)
(6.76061 -0.257798 2.90772e-17)
(7.14384 -0.119219 -5.11708e-17)
(7.08018 0.0937171 9.72911e-17)
(7.29015 0.116317 4.00997e-17)
(7.11152 0.0554505 -3.29707e-17)
(7.25429 0.117618 7.49795e-17)
(7.04252 0.00886797 -9.59419e-18)
(7.34776 0.269197 8.11434e-19)
(7.10601 -0.160601 5.9709e-17)
(7.70945 -0.263515 -6.98062e-18)
(7.76737 -0.0383922 0)
(7.02127 -0.194759 -1.74607e-17)
(7.47498 0.265527 -2.31358e-17)
(7.21226 -0.0578264 -5.30886e-17)
(7.14856 0.18745 -8.1991e-18)
(7.36197 0.0326626 3.56102e-17)
(7.31679 0.0705932 5.78993e-17)
(7.00344 0.00644375 -2.99974e-18)
(6.63384 0.124741 -5.96803e-18)
(7.79696 0.0933688 3.30302e-17)
(7.87559 -0.111196 1.0327e-17)
(6.48476 0.197409 0)
(6.93732 -0.0942203 1.3683e-17)
(7.38262 -0.0737097 2.45166e-17)
(7.02485 0.0591091 3.76117e-17)
(7.07815 -0.0125526 2.21914e-17)
(7.69868 -0.18297 -3.6394e-17)
(7.93244 -0.0929968 3.79509e-18)
(7.95326 -0.128819 0)
(7.7063 -0.134515 -6.92598e-17)
(7.23281 0.101954 1.88698e-16)
(6.90475 0.151335 -6.34214e-16)
(7.65974 -0.169716 0)
(7.7683 -0.176791 0)
(7.75385 -0.156251 6.96941e-18)
(7.69301 -0.167054 0)
(7.18102 -0.0690864 0)
(7.07096 -0.015357 -5.72616e-17)
(7.50598 -0.181088 2.05466e-17)
(7.76242 -0.109449 0)
(7.68123 -0.157235 0)
(7.59865 -0.119629 -1.15296e-17)
(4.44349 -0.0307665 -3.61884e-17)
(4.12928 0.0907621 7.13268e-18)
(7.50032 -0.138654 0)
(7.31017 -0.163783 1.69917e-17)
(1.34617 -0.115341 -4.03548e-17)
(6.94486 0.0250824 -1.55307e-16)
(6.79477 -0.0208529 7.9261e-17)
(1.34154 -0.0655655 0)
(1.32231 0.0232836 0)
(4.9986 -0.0788992 -1.92813e-17)
(6.92681 0.114783 -3.26769e-17)
(6.58994 -0.0333742 1.59259e-18)
(8.23367 0.0592518 -3.62464e-17)
(7.02938 0.128377 -1.14518e-17)
(7.0192 0.110591 -8.56496e-19)
(7.03353 0.0787609 3.61897e-18)
(6.98381 0.123121 2.05469e-17)
(6.98626 0.0972371 1.50188e-17)
(8.32613 -0.122945 1.02528e-16)
(6.90415 -0.121964 7.7027e-17)
(6.72376 -0.20681 -4.07733e-17)
(5.19832 0.0269878 -4.48016e-17)
(7.07749 0.0685044 2.25982e-17)
(7.03863 0.0943311 4.77468e-17)
(7.61266 0.156417 0)
(1.41661 0.0222237 6.0186e-17)
(1.8117 0.0138082 0)
(7.73566 0.191773 6.87209e-18)
(8.07923 -0.0683331 0)
(7.63352 0.447231 -1.40614e-17)
(7.59987 0.278191 -1.41982e-16)
(6.97535 0.0882472 0)
(6.79622 0.111116 4.73961e-17)
(6.89916 0.0891185 6.99418e-17)
(7.36713 0.0845148 3.27899e-16)
(7.0959 -0.176258 -5.6931e-17)
(6.89024 -0.242389 -3.10991e-17)
(7.12109 -0.0117961 4.30861e-17)
(7.31042 0.0274585 -2.52031e-17)
(6.38266 -0.131477 -6.36247e-17)
(6.81044 0.0885943 -1.39633e-16)
(7.27053 0.211549 2.92756e-17)
(7.17884 -0.209836 -5.0883e-17)
(7.26433 -0.183817 -4.77862e-18)
(7.20364 -0.156276 -2.53022e-17)
(7.28103 -0.132857 1.60281e-17)
(7.45746 -0.139561 0)
(7.65982 -0.000593639 -9.86609e-17)
(8.28846 -0.0652671 -3.13552e-17)
(6.90111 0.0103543 4.93523e-17)
(7.42884 -0.057634 -3.80781e-18)
(7.00128 0.0527177 -6.33638e-17)
(7.3179 0.0525449 0)
(7.60239 -0.0164319 6.1021e-18)
(7.45394 -0.123203 -6.05578e-18)
(7.79504 0.163388 -2.69875e-17)
(6.98999 0.227036 -1.91074e-17)
(7.0037 0.0226206 0)
(7.00158 0.0438635 5.17659e-17)
(7.39387 -0.0827586 -1.22143e-17)
(7.25961 -0.0571864 1.13582e-17)
(6.80731 -0.0879845 4.15045e-17)
(6.9353 -0.0799944 0)
(6.51172 -0.233744 0)
(7.76537 -0.111791 -2.09956e-17)
(7.59449 -0.129637 8.69278e-18)
(7.82339 0.0785106 -8.0734e-18)
(8.01993 -0.0771273 5.87371e-17)
(2.51111 1.28662 -7.01184e-18)
(3.00176 -0.482933 7.4285e-18)
(6.10311 2.39086 -2.46539e-18)
(6.2124 2.43966 0)
(3.02576 -1.38626 1.32151e-17)
(2.94577 -1.36566 1.3831e-17)
(7.58725 -3.81698 4.06334e-18)
(6.62566 1.11837 1.55223e-17)
(7.6242 -1.28536 2.29745e-19)
(4.30163 -0.751895 -2.12225e-17)
(6.60995 1.62175 9.86325e-19)
(5.35836 -1.46425 -1.44753e-17)
(3.84867 -0.739527 0)
(7.10141 -0.31268 -6.36651e-18)
(3.2669 -0.471324 -2.22924e-17)
(4.04651 -1.37417 -1.32764e-18)
(0.614106 0.296063 7.07641e-17)
(7.6804 -1.24655 2.83049e-19)
(4.04998 0.127031 2.50264e-18)
(5.72054 -3.26804 1.11929e-18)
(3.84708 -0.448839 -3.60722e-19)
(4.05704 -1.44978 0)
(6.27877 -3.04761 1.30971e-18)
(6.58279 -3.23765 5.11862e-18)
(6.29611 -3.64733 2.08902e-18)
(6.41704 -3.66097 -1.29488e-18)
(6.26931 2.17546 -1.89413e-18)
(6.21261 2.27628 2.05947e-18)
(0.715789 -0.372545 0)
(3.1793 -1.35912 2.71606e-18)
(3.08943 -1.30383 -1.90798e-17)
(4.46721 -0.830518 1.76707e-17)
(6.31184 -1.73829 -9.40304e-18)
(6.60153 2.70911 1.93967e-19)
(6.10165 2.70582 1.10805e-19)
(5.60747 -3.80439 1.62e-18)
(1.62497 0.631969 -1.65672e-17)
(6.06344 2.33918 -3.29817e-18)
(6.70023 -1.71752 0)
(6.81184 -1.63444 1.97028e-20)
(6.85862 1.73501 -7.61975e-20)
(6.78398 1.73507 0)
(6.4651 1.94779 -2.48725e-18)
(6.51227 1.99024 0)
(6.52962 1.04964 0)
(6.68809 1.82386 -1.37457e-18)
(6.74743 1.82028 1.1909e-18)
(3.28356 -0.601381 3.08899e-17)
(3.39492 -0.648012 3.02662e-17)
(5.9233 2.64407 -2.29821e-18)
(6.24145 2.42347 0)
(6.21847 2.43209 0)
(7.50196 -3.23145 3.87662e-18)
(7.33688 -3.52637 6.32328e-18)
(4.14442 -0.6229 0)
(4.13314 -0.337658 0)
(5.62749 -3.55194 1.66691e-18)
(5.15717 -1.22644 3.55539e-17)
(4.64318 -1.07129 -9.92741e-18)
(4.03705 -0.789042 -3.22717e-17)
(3.58026 -2.09876 2.90287e-18)
(6.29328 2.10446 0)
(3.46058 -1.52814 -3.56792e-18)
(6.19832 2.41818 4.04698e-19)
(6.22538 2.29663 -5.11624e-19)
(3.23644 -1.26639 9.75879e-18)
(6.80127 -0.389476 0)
(5.56522 -3.59121 0)
(2.87286 0.0216234 0)
(6.28708 -3.9763 1.51341e-18)
(6.29929 -3.94146 -7.3478e-19)
(5.59194 -3.6489 0)
(5.65649 -3.66 -3.087e-18)
(5.56426 -3.71287 1.62037e-18)
(3.9821 -0.425052 1.19442e-18)
(4.02545 -0.564199 1.44974e-21)
(6.80654 -2.78353 -2.07454e-19)
(6.20506 2.17645 3.23697e-19)
(6.17638 2.23886 4.9406e-18)
(6.51892 -3.41022 2.77755e-18)
(6.59031 -4.10069 0)
(3.16504 -1.50317 -7.40934e-18)
(3.11205 -0.319111 0)
(6.12887 2.2382 -5.29933e-18)
(6.1146 2.27347 0)
(6.09898 2.18234 0)
(7.06872 0.247645 -1.77881e-17)
(4.12254 -0.414154 -3.21093e-18)
(4.14133 -0.551372 -3.5035e-18)
(6.59805 0.494204 -7.6887e-17)
(6.70534 0.37895 -4.85697e-17)
(3.92902 0.824326 2.08584e-18)
(3.8888 0.967291 -2.60976e-18)
(6.38194 -3.94816 0)
(5.88389 -3.54322 1.56993e-19)
(6.25368 2.36916 0)
(6.31681 2.33529 0)
(6.29025 2.31199 0)
(6.28607 2.38397 0)
(3.07372 -1.19314 -5.46199e-18)
(5.50955 -3.73379 0)
(3.06442 -0.494577 9.9734e-18)
(3.15085 -0.491544 -6.38842e-18)
(3.11778 -0.415531 -1.76775e-17)
(3.10255 -0.536707 -5.19727e-18)
(6.39933 2.24604 5.65396e-19)
(6.35837 2.21702 3.97555e-18)
(6.47324 -4.02328 1.53156e-18)
(6.2178 2.37474 3.73023e-19)
(6.63888 1.51439 9.62423e-18)
(7.46693 -0.432143 0)
(7.12961 -2.63809 1.70297e-17)
(7.40779 -3.02296 3.59684e-18)
(6.6641 -2.25457 0)
(7.07229 -0.344026 2.7049e-18)
(3.28859 -0.34806 0)
(3.30782 -0.124001 0)
(5.76174 -0.781915 0)
(0.643783 -0.200092 6.33809e-17)
(6.6989 -2.76522 -5.40439e-19)
(2.83667 -1.89192 -1.1246e-18)
(7.2378 -2.82986 0)
(3.09056 -0.64386 4.5983e-18)
(3.08184 -0.84191 9.90575e-18)
(6.24984 2.40364 -7.93203e-20)
(6.23839 2.38558 -1.38383e-20)
(6.27793 2.39319 1.13492e-19)
(6.19388 0.321336 -7.79637e-17)
(3.4997 -0.1721 3.02635e-17)
(3.36999 -0.328004 2.17888e-18)
(3.51652 -0.33175 -3.35137e-17)
(3.38647 -0.163199 -2.29072e-18)
(6.99003 0.168879 2.05229e-17)
(7.05551 -0.249144 -2.94993e-18)
(3.53726 -0.103385 -2.43991e-17)
(3.81986 0.0422979 -5.80517e-18)
(3.78777 -0.127577 1.06938e-18)
(3.68732 0.609333 0)
(3.89091 0.354094 2.59156e-17)
(3.00039 -1.18046 0)
(2.98493 -1.08506 7.61082e-21)
(6.61677 -0.5653 7.57302e-18)
(6.66702 -0.358457 3.19893e-18)
(6.201 2.3119 -5.37786e-19)
(6.22639 2.35776 5.65731e-19)
(3.71448 -0.294708 1.72475e-17)
(6.36075 2.34427 0)
(6.39409 2.30249 0)
(6.37292 2.41695 0)
(6.93316 -3.51905 5.63802e-18)
(7.20964 -3.60175 0)
(2.91356 -0.462009 -6.36334e-18)
(7.10844 -2.98909 -5.54121e-18)
(6.73363 -3.13723 5.67853e-18)
(6.38508 -4.02481 0)
(6.32507 -3.98463 -1.59843e-18)
(6.40867 -3.99847 6.46388e-20)
(6.30899 -4.01626 0)
(6.72475 0.277018 0)
(6.3747 -3.5393 6.77043e-20)
(6.45568 -3.62648 1.30027e-18)
(6.52235 -3.50873 -1.33875e-18)
(6.44302 -0.421569 -4.00475e-17)
(6.46207 -0.539489 5.44102e-17)
(6.52799 -0.363538 -6.10973e-17)
(3.1432 -0.270607 5.51863e-18)
(3.23411 -0.174723 -5.68689e-18)
(3.1638 -0.171058 -2.87451e-18)
(3.22417 -0.278021 2.75966e-18)
(4.40773 -0.422657 -3.11568e-17)
(4.1838 -0.536223 1.08699e-18)
(4.30897 -0.553359 0)
(4.34307 -0.324836 1.8928e-17)
(6.83965 0.560118 1.87463e-17)
(3.1508 -2.92718 3.87635e-18)
(3.37112 -2.77145 1.65503e-18)
(3.38035 -1.82385 6.22467e-20)
(3.22855 -1.8595 -5.19379e-18)
(3.13008 -0.146223 -5.06676e-18)
(3.13609 -0.0286299 5.43122e-18)
(3.03694 -0.166318 0)
(4.15394 0.475265 0)
(3.89021 0.766967 9.06476e-18)
(4.3496 -0.244959 0)
(4.14327 -0.0354777 0)
(4.06972 -0.225667 0)
(4.36517 -0.114463 0)
(6.80957 -1.47021 5.49556e-20)
(6.80685 -1.53027 0)
(6.09248 -3.4395 1.25598e-18)
(6.11799 -3.52948 0)
(6.23011 -3.48932 1.73976e-19)
(6.01569 -3.43465 -3.65761e-18)
(3.85084 1.03988 0)
(6.19112 -3.11851 -5.15601e-18)
(5.88758 -3.22594 0)
(3.88555 1.5229 -1.20501e-18)
(3.94523 1.06799 0)
(3.73793 -0.391158 -2.41757e-17)
(3.97692 -0.240479 0)
(3.82348 -0.197341 0)
(3.95417 -0.390422 2.976e-17)
(3.42549 -1.14943 4.17592e-17)
(3.36564 -1.27407 -1.49838e-17)
(6.92889 0.136648 -4.87888e-18)
(6.58067 -0.0660366 9.20421e-17)
(6.53825 -0.172927 0)
(6.49491 -0.13006 9.16186e-17)
(6.61859 -0.150547 0)
(3.36733 -1.04425 -1.81001e-17)
(3.44523 -0.907427 0)
(3.24473 -1.00418 0)
(4.48058 -1.10194 -2.5075e-17)
(4.64563 -0.732887 -1.12816e-17)
(4.46256 -0.832101 1.16562e-17)
(6.06904 -3.63258 1.06285e-18)
(6.11095 -3.57864 1.73367e-18)
(6.18722 -3.61138 -1.07791e-18)
(6.01968 -3.56702 -2.31501e-18)
(6.86334 -3.44887 -7.23094e-18)
(6.67955 -3.2918 -4.54528e-18)
(6.91365 -3.35604 1.66604e-18)
(6.63256 -3.3904 -3.35652e-18)
(3.99997 -1.03477 0)
(4.00032 -1.12108 0)
(3.91566 -1.02669 -3.43818e-19)
(6.09652 2.7651 4.59672e-20)
(7.35202 -0.181619 -2.85584e-17)
(7.17179 -0.212383 3.28991e-18)
(7.24555 -0.202175 1.77756e-17)
(7.27887 -0.183784 -1.19963e-17)
(6.36123 2.9105 -9.03363e-20)
(5.26006 -0.155569 5.13702e-17)
(6.09224 2.34177 -1.73937e-18)
(6.10469 2.36735 -8.15605e-19)
(6.12427 2.30942 1.44449e-18)
(3.42662 -1.4004 0)
(3.34546 -1.55074 0)
(3.61371 -1.42042 2.60512e-17)
(6.21235 -1.38707 5.32374e-18)
(3.56416 0.366022 0)
(3.73671 0.366458 2.5477e-19)
(3.66571 0.287054 0)
(3.64126 0.497603 -1.07825e-17)
(6.93628 0.427662 2.42169e-17)
(3.09123 -0.925285 2.88151e-18)
(2.99557 -1.0346 -6.50169e-18)
(3.00057 -0.963551 3.42992e-18)
(3.09128 -1.02038 0)
(8.02576 0.196415 -6.30876e-17)
(0.57214 -0.0922786 1.23402e-16)
(7.74898 -0.337377 4.41642e-17)
(8.06835 -0.0249207 0)
(1.9012 -0.166978 -3.23452e-17)
(7.08391 0.286539 -1.52236e-17)
(4.6644 0.0627792 -7.71537e-17)
(6.99735 0.0210731 3.86225e-17)
(7.00731 0.107084 -2.49199e-17)
(7.00655 0.0818462 -4.98291e-17)
(7.96287 -0.221906 0)
(3.51029 -0.422149 -3.19289e-18)
(6.75841 0.27948 0)
(6.80272 0.233497 1.84457e-17)
(6.0336 -0.0877677 0)
(6.31686 0.185497 -9.0875e-17)
(6.20886 0.230305 4.83062e-17)
(6.51585 0.0709202 2.56548e-17)
(6.4447 0.113304 0)
(3.15923 -0.289559 6.13771e-18)
(6.91857 0.174603 -4.41656e-17)
(6.89643 0.20785 -4.84805e-17)
(5.41497 -0.178919 -3.17989e-17)
(6.95719 0.293431 1.84991e-17)
(6.94627 0.345336 1.2299e-17)
(2.91114 0.524159 2.73908e-17)
(7.00926 0.0748852 4.40574e-17)
(7.69018 0.33321 -1.89305e-17)
(0.408185 0.114671 -8.15771e-17)
(6.99967 0.142806 -1.17481e-17)
(6.96984 0.227682 2.99045e-17)
(7.18917 0.279786 0)
(5.44905 -0.33892 -6.3137e-17)
(7.40193 -0.201675 9.08796e-17)
(3.26634 -0.310812 3.24126e-18)
(3.48514 -0.238158 -1.63916e-17)
(6.88593 0.872038 1.29975e-17)
(7.01191 0.117591 3.29368e-17)
(7.32698 -0.246731 -2.40684e-17)
(7.38243 -0.262766 -8.39755e-17)
(7.33328 -0.316484 2.75589e-17)
(7.61844 -0.192285 4.07303e-17)
(6.58213 -0.401006 7.04311e-18)
(6.56191 -0.502304 -9.70635e-18)
(7.12079 -0.178366 8.7086e-19)
(7.1058 -0.217643 2.22978e-17)
(7.05398 0.206056 -8.84057e-18)
(6.37372 -0.293038 -6.89286e-17)
(6.71906 -0.413288 0)
(6.69187 -0.528338 0)
(6.96014 -0.150701 -5.4142e-18)
(6.85442 -0.155477 0)
(0.389137 0.113205 0)
(3.00765 0.469735 1.60754e-17)
(7.55795 -0.144832 3.15177e-17)
(7.64135 -0.119269 5.66715e-18)
(7.25085 0.395093 1.81193e-19)
(7.07213 -0.218212 0)
(7.13697 -0.187333 0)
(6.70025 0.222977 -1.73506e-17)
(7.57736 -0.37451 0)
(7.00244 0.0684419 -2.31183e-17)
(6.99696 0.0852305 8.33924e-17)
(7.01148 0.175357 -1.88465e-18)
(7.36651 -2.83553 1.24119e-17)
(6.9629 -2.37717 -9.85477e-18)
(6.95647 -2.26344 9.12792e-18)
(5.6885 0.0762822 3.84942e-17)
(7.00958 0.150623 0)
(4.94066 -0.112224 -2.30307e-16)
(7.37146 -0.344233 0)
(6.66321 -0.066857 -2.47336e-17)
(6.41896 -0.0754539 1.17938e-17)
(6.29392 -0.0779194 1.15288e-17)
(7.108 0.327606 -2.57412e-17)
(2.93983 -0.53701 0)
(7.46922 -0.367537 8.07224e-18)
(7.42465 -0.334858 -3.82607e-17)
(4.77683 -0.152974 0)
(4.96823 -0.142402 0)
(2.94948 -0.939195 9.10934e-20)
(7.80405 0.228744 -9.48915e-18)
(7.22267 0.217252 -3.89221e-17)
(7.29499 -0.0328317 0)
(8.36184 -0.0564495 -1.05183e-16)
(7.15854 0.363689 0)
(7.1249 0.322514 1.24168e-17)
(6.94461 0.189397 -3.30643e-17)
(4.76381 -0.518456 0)
(8.15496 0.1069 -3.98826e-17)
(7.9482 0.186011 -8.3597e-17)
(5.97882 0.0186945 4.8091e-17)
(5.82674 0.0887829 -5.63237e-17)
(7.34025 0.0929745 -1.2399e-17)
(6.35585 2.08694 1.5898e-18)
(6.39131 1.99595 -1.73611e-18)
(5.95132 -0.136716 -2.03312e-17)
(7.00072 0.0206438 0)
(6.98625 -0.31752 -2.35547e-18)
(7.06316 -0.246862 -2.38064e-18)
(7.00749 -0.274794 0)
(8.14201 -0.0259798 1.26276e-17)
(8.07083 0.0358846 -2.52608e-17)
(3.96017 0.479596 0)
(3.84684 0.640371 1.98133e-17)
(6.39273 2.12967 2.82456e-18)
(6.47614 2.08604 -2.60817e-18)
(6.79064 0.0411824 1.45482e-16)
(6.57546 0.0432144 5.355e-17)
(0.722004 0.156906 1.0536e-17)
(5.15209 -0.0494628 4.84731e-17)
(7.07445 -0.00730798 -9.48642e-17)
(6.94564 0.133524 -3.98943e-17)
(6.87907 0.153037 6.53157e-17)
(6.83045 0.186582 -5.70564e-17)
(7.00948 0.0542012 0)
(7.00205 0.0429926 -1.17909e-17)
(6.93123 -0.352132 2.36422e-18)
(6.93693 -0.297994 -8.20005e-18)
(7.00855 -0.258041 0)
(3.64816 -1.33256 -2.8505e-17)
(3.552 -1.16373 -8.05721e-18)
(3.64368 -1.03793 0)
(6.8857 0.171756 -6.87871e-17)
(6.85014 0.238906 -3.80041e-17)
(6.87298 0.20622 4.54863e-17)
(6.8205 0.253722 6.16978e-17)
(7.82872 0.347832 1.00425e-16)
(7.78092 0.302 -4.33673e-17)
(7.82558 0.22897 0)
(6.78509 -0.0812129 2.91933e-17)
(3.05586 -1.51692 -7.25784e-18)
(6.61543 0.0997493 -2.57208e-17)
(6.57906 0.147092 4.36883e-18)
(6.95081 0.0566532 1.11383e-16)
(7.27462 -0.0842785 1.34913e-16)
(3.6404 -1.59572 0)
(3.44099 -1.67879 4.70116e-18)
(5.66001 -0.0519566 -9.10795e-17)
(5.49528 -0.0694888 3.76592e-17)
(7.38046 0.101305 0)
(6.84361 -0.0844608 8.4779e-17)
(7.52345 0.0760014 -4.7485e-17)
(7.34174 -0.163563 0)
(7.55774 -3.53862 7.71892e-18)
(7.54369 -3.32144 -7.9739e-18)
(5.08935 0.0559242 0)
(5.25265 -0.00172632 -4.89424e-17)
(5.39915 0.0667686 3.31913e-17)
(4.24531 0.284609 0)
(4.4071 0.242428 2.15169e-17)
(6.86147 0.272565 -1.57687e-17)
(6.84919 0.31333 -1.43883e-17)
(6.82065 0.327157 0)
(7.95434 -0.205714 -7.19328e-17)
(7.05413 0.00989831 0)
(6.96902 -0.00561165 -3.99485e-17)
(6.50838 -0.00744061 -1.66527e-16)
(6.34701 -0.0790434 0)
(6.414 -0.0042684 9.97428e-18)
(7.11497 0.251238 1.715e-17)
(7.11932 0.287227 3.21511e-18)
(6.23525 -0.0587964 0)
(6.21716 0.0368634 -2.45488e-17)
(6.10966 0.0895326 -1.12836e-16)
(7.0132 0.0294394 0)
(7.53588 -0.341831 0)
(7.66691 -0.293949 0)
(7.66775 -0.26681 0)
(0.782013 -0.107004 -5.3066e-17)
(2.949 0.46525 -7.62661e-18)
(7.12365 -0.246086 0)
(7.0877 -0.285522 1.14622e-17)
(7.05041 -0.278979 -7.2372e-18)
(3.66853 -0.737505 6.10984e-18)
(3.58652 -0.894968 0)
(7.71907 -0.121459 5.73319e-18)
(7.97393 0.0719577 6.38286e-17)
(7.7147 0.148982 0)
(9.70462 0.451111 1.12769e-18)
(9.65648 0.51819 0)
(5.97617 1.17048 1.6544e-19)
(6.08882 -4.13069 1.17663e-20)
(6.65456 0.554666 -7.15192e-17)
(3.70594 0.31323 2.02479e-18)
(6.50984 1.18184 -3.35914e-20)
(2.94633 0.503859 6.70546e-18)
(3.71974 -0.684571 0)
(6.11666 3.11143 1.71198e-19)
(5.76459 -3.06669 0)
(5.79708 -3.14618 0)
(7.00817 -4.23915 0)
(6.25987 2.15667 0)
(6.2619 2.14157 3.64917e-20)
(6.08918 2.28777 0)
(6.08496 2.31325 -2.09349e-21)
(6.12993 0.786781 0)
(7.90386 0.324807 -5.20919e-19)
(6.88988 -1.93165 0)
(3.67305 -2.21386 1.48672e-18)
(4.2334 0.19331 2.53717e-19)
(6.21801 -1.98467 5.77714e-20)
(6.25372 -2.03129 -7.29087e-20)
(6.67898 -4.13128 -1.63224e-19)
(6.68323 -4.12942 0)
(6.94435 1.07514 0)
(8.39115 0.9578 0)
(1.53499 -1.6968 4.22119e-17)
(2.81528 0.0889185 -2.19554e-18)
(2.32819 -2.70706 -6.25123e-18)
(2.24165 -2.66937 0)
(6.48846 2.68642 1.74821e-20)
(7.44395 0.819959 0)
(7.43316 0.860478 0)
(4.81628 0.941579 0)
(3.35343 -2.61953 0)
(7.42556 0.574329 -2.96128e-20)
(2.57891 -0.856338 -5.15059e-18)
(7.19105 1.27429 3.01846e-20)
(3.38772 -1.83521 -1.99431e-18)
(6.09314 0.802592 -1.4285e-22)
(4.07798 0.99988 0)
(4.05166 0.958341 0)
(6.52002 2.90611 0)
(8.01599 0.22613 -5.06167e-19)
(6.39822 -4.10957 8.19007e-19)
(3.10166 -3.53601 2.10185e-18)
(3.23737 -3.27018 2.48349e-20)
(6.98235 1.06599 0)
(8.45865 -0.517981 0)
(6.06151 3.13819 -4.30515e-19)
(6.01264 3.09752 0)
(5.97161 2.91424 7.63786e-19)
(6.69512 -0.748668 1.93448e-17)
(7.99114 0.545179 0)
(7.30664 0.987786 -6.85251e-20)
(6.69502 -0.842683 2.26035e-17)
(6.06858 3.50659 -2.5606e-21)
(6.70556 -1.87635 -5.42373e-20)
(6.70149 -1.83082 6.5155e-20)
(6.97016 -4.20235 8.10929e-19)
(7.0048 -4.2043 2.80181e-18)
(7.42865 0.720496 -5.00537e-20)
(7.4339 0.66384 -1.39287e-20)
(8.63685 -0.234996 1.40888e-18)
(6.20027 2.12504 0)
(6.24063 2.13302 -3.39378e-20)
(8.96645 1.01767 2.02202e-18)
(6.46304 1.01514 3.12059e-20)
(5.72245 -4.06571 2.0487e-18)
(5.37225 -2.9655 -2.1223e-18)
(5.85379 3.06837 -3.23883e-20)
(6.38297 -2.13464 2.03959e-20)
(7.78997 0.259134 0)
(5.90943 -2.39206 4.40472e-18)
(6.39636 0.906342 -7.67941e-18)
(6.2664 -1.30599 0)
(4.37502 -1.54398 2.99036e-17)
(9.06065 0.0545775 2.95607e-20)
(3.29139 2.18902 -2.60327e-18)
(5.7143 2.46324 1.45102e-18)
(5.66393 2.42791 -1.41708e-18)
(7.29694 1.15295 0)
(3.86507 -0.814227 -3.34102e-19)
(3.90129 -0.973546 -3.05856e-19)
(6.21292 2.27991 2.08815e-19)
(6.28983 -2.13343 5.01269e-20)
(4.14386 1.70273 -2.73948e-19)
(2.95225 -0.0781936 6.436e-18)
(3.02306 0.0853472 1.15741e-17)
(7.27393 -1.22967 2.21072e-19)
(6.16935 0.99416 1.30152e-19)
(6.19601 1.01654 -2.1183e-19)
(5.93056 -4.16869 -1.05396e-18)
(5.87236 -4.18481 -2.13394e-20)
(8.37433 0.313211 3.86029e-19)
(8.37358 0.363092 2.77456e-19)
(7.10591 -1.49752 0)
(7.04414 0.564964 -1.138e-20)
(4.09778 1.37675 1.42372e-18)
(4.18589 1.29285 1.85137e-18)
(7.05789 3.31783 1.17557e-19)
(7.14209 0.684886 -2.96356e-20)
(5.48874 -4.08759 -1.21081e-18)
(6.24329 3.27558 3.50234e-20)
(6.32091 3.16237 2.22318e-21)
(4.54589 -0.256157 -1.34316e-18)
(4.76424 -0.318389 -6.32659e-19)
(7.84712 -0.779301 0)
(6.67203 0.638777 1.14479e-19)
(7.9679 0.736974 0)
(7.8439 0.6999 2.25686e-19)
(6.48546 0.759493 -1.8155e-19)
(4.2017 -1.46214 0)
(4.12775 -1.48198 0)
(6.34661 0.979381 2.62548e-20)
(7.59603 0.233162 -1.22527e-19)
(7.18246 -4.24185 0)
(5.58515 1.20895 0)
(7.42391 -3.36959 0)
(6.17815 -4.15948 5.58818e-19)
(6.16427 -4.17779 9.98984e-19)
(4.50605 0.170758 1.74806e-18)
(4.53495 0.107157 -1.56573e-18)
(3.94269 -1.24183 -3.28782e-19)
(8.26426 -4.43847 1.03796e-18)
(7.81798 -2.54574 1.15912e-19)
(1.20474 -3.33766 4.72451e-18)
(7.84275 -3.66925 4.31319e-19)
(5.90077 2.06695 -1.13061e-19)
(6.16086 2.42739 5.94545e-19)
(7.48112 -0.510463 -2.96962e-19)
(7.59012 -0.508205 1.26703e-19)
(5.79857 2.91965 7.04919e-20)
(3.92787 -0.653328 1.30689e-18)
(3.96844 -2.97312 5.91858e-18)
(6.64205 1.15311 0)
(9.28305 -2.06261 2.28712e-18)
(7.56581 0.946552 1.87432e-19)
(6.96161 -0.99212 0)
(6.71504 0.735264 4.27973e-20)
(6.19552 1.93359 6.96786e-19)
(6.1538 1.89376 -1.42412e-18)
(8.16719 -0.359335 4.40157e-19)
(8.14997 -0.271994 -8.00764e-19)
(6.10118 -2.48966 -2.74321e-19)
(4.28525 0.663557 -9.31491e-19)
(6.34835 2.31294 -9.65271e-20)
(6.4232 3.04839 -1.72312e-21)
(7.26983 1.1045 1.82563e-20)
(5.95722 1.10718 1.59744e-19)
(6.97302 0.631004 0)
(2.39306 -1.92401 0)
(3.70942 -0.6012 0)
(8.207 1.62367 1.30097e-19)
(7.77553 -0.62872 2.26531e-19)
(7.03124 -1.49597 -1.24587e-19)
(6.88293 -1.53453 0)
(4.7755 0.0358404 -1.55942e-18)
(4.8391 0.0295017 0)
(5.13316 -3.33664 -1.09798e-19)
(5.22364 -3.35617 -7.14818e-19)
(6.65546 -0.867381 0)
(8.40381 -0.0825326 0)
(8.39135 -0.0307114 0)
(6.77865 -4.14492 0)
(6.71392 -4.13211 0)
(6.54419 2.49333 8.95382e-21)
(6.5379 2.94317 -4.67684e-21)
(6.52912 2.98208 1.08349e-20)
(6.30359 2.31002 -1.16905e-19)
(7.29357 -1.36784 2.34276e-19)
(7.1528 -1.44052 8.9446e-20)
(7.05189 3.3713 -2.62417e-19)
(5.69719 1.16947 0)
(5.89508 1.10469 3.1225e-19)
(5.90518 1.06217 1.60943e-19)
(7.27794 0.855699 1.53542e-19)
(7.38287 0.86664 -1.41643e-19)
(7.88475 -4.45979 4.18124e-18)
(7.94669 -4.41835 0)
(6.04266 2.30488 -2.76471e-20)
(7.04964 -0.895068 9.19297e-20)
(7.02521 -0.984866 0)
(2.99348 0.61625 -6.96434e-18)
(2.95587 0.575173 7.91212e-18)
(2.98914 0.733749 -3.54429e-18)
(6.64443 -4.11346 9.4689e-19)
(6.06202 -0.12842 0)
(6.27857 -0.759836 0)
(5.86011 0.658243 3.98484e-19)
(5.98312 -1.98766 0)
(4.4104 0.641166 -1.00345e-19)
(4.49261 0.541807 1.22095e-18)
(7.24209 -3.89957 3.88449e-18)
(7.4133 -0.504361 -3.43199e-19)
(6.2105 2.18933 -1.83237e-19)
(7.25969 1.72281 8.59693e-20)
(8.23167 -0.682466 0)
(8.32165 -0.5504 0)
(6.14976 0.447093 9.50528e-21)
(7.10559 -1.80588 3.21364e-19)
(6.24072 -4.17552 -2.26744e-19)
(6.4863 1.50788 8.80277e-19)
(7.87166 0.671799 0)
(7.94685 0.689107 0)
(5.98794 -4.091 6.04012e-19)
(6.08359 -4.0884 0)
(7.04468 -4.37667 -8.13613e-19)
(4.66401 0.345781 0)
(4.52381 -0.19332 2.25342e-19)
(3.33006 -3.25135 0)
(6.32245 2.19617 1.13426e-19)
(6.05942 -4.21185 0)
(6.31132 2.23409 5.47828e-20)
(6.35359 2.2694 -9.62934e-20)
(5.73358 -3.21156 2.64468e-19)
(5.58099 -3.31053 0)
(7.65348 -0.980753 0)
(7.59823 -1.02291 0)
(8.19708 1.19367 0)
(6.29118 2.22008 -5.75845e-20)
(6.25504 2.18447 1.78803e-19)
(6.35079 2.24698 -6.18933e-20)
(6.3734 2.24416 5.34172e-20)
(6.33464 2.2304 8.1179e-22)
(7.49757 0.66378 -1.29916e-19)
(4.85137 0.91265 0)
(9.20807 -2.10617 9.79278e-19)
(6.49181 2.72252 8.23588e-21)
(6.28574 2.52338 -2.93463e-19)
(6.25277 2.53391 0)
(5.66236 -4.20523 -4.38258e-19)
(5.66963 -4.24788 4.50012e-19)
(6.80446 1.04582 -8.49377e-22)
(4.06672 0.6044 -4.4492e-20)
(5.4214 -1.74887 -1.6915e-17)
(5.04232 -1.40868 1.8864e-17)
(6.11791 -2.09559 1.38224e-18)
(6.21103 1.0845 1.43282e-19)
(3.67813 0.250855 -3.24779e-18)
(6.06302 2.24062 -1.59697e-19)
(6.45152 2.31101 1.32313e-20)
(7.96391 -4.32234 -1.31255e-18)
(4.25178 1.18111 0)
(4.98973 -0.346169 -8.55117e-19)
(6.04924 2.33102 5.11151e-19)
(6.06354 2.31617 -6.9397e-19)
(6.02388 2.31853 -1.47392e-19)
(6.47592 -1.7899 3.44534e-20)
(7.03303 -1.24332 0)
(7.86586 -4.04698 1.26303e-18)
(6.80389 -1.23657 2.0109e-20)
(6.69648 -1.30044 2.55603e-20)
(7.77068 0.688077 1.62411e-19)
(6.54769 -4.10762 -3.78941e-21)
(6.43637 -4.09969 0)
(5.59115 -3.07702 6.31899e-19)
(7.27165 -4.2108 3.36279e-19)
(6.5136 -2.87482 1.22624e-19)
(6.30783 -4.1425 8.21614e-19)
(8.24688 -1.22925 -9.17321e-20)
(3.21986 -3.07725 -1.78241e-18)
(3.30209 -3.1324 -1.03783e-20)
(1.71835 -1.44941 1.6258e-17)
(6.46241 -4.09472 2.85356e-19)
(6.43594 -4.08383 0)
(6.52119 -4.0985 -3.22582e-19)
(2.83631 0.720376 -9.91291e-18)
(4.44139 0.862204 -4.33326e-19)
(4.43421 0.918692 2.24826e-18)
(6.28589 -1.46162 0)
(6.38912 -4.09468 7.26573e-19)
(7.99672 -0.767743 -1.53775e-19)
(8.09421 -0.725042 -1.84222e-19)
(6.37986 -0.308192 -1.6367e-19)
(7.53761 0.868817 1.27653e-19)
(5.45204 2.98251 -4.96706e-19)
(3.19162 0.532557 0)
(7.64352 -3.94782 0)
(6.45187 1.58429 4.71397e-18)
(6.59467 -1.90585 3.25872e-23)
(5.90266 2.70077 1.22822e-18)
(5.90815 2.83842 -5.5013e-19)
(6.59218 -0.876055 0)
(6.57593 -0.954541 2.7967e-20)
(6.50805 -0.988346 -9.32087e-20)
(7.27359 -4.40547 1.29958e-19)
(3.12829 -1.44073 -5.56192e-18)
(6.3763 2.71065 -1.32038e-19)
(6.2486 2.81839 6.30789e-19)
(2.29353 -0.983909 -1.30742e-17)
(6.14411 2.71523 1.61474e-18)
(5.44461 -3.49212 0)
(6.26154 2.93407 6.94453e-20)
(6.22192 3.04466 -5.51234e-20)
(6.72728 -4.14226 -5.10654e-19)
(5.20256 -0.340236 -1.02094e-18)
(6.3358 3.21313 0)
(6.30238 3.27177 -1.51925e-21)
(3.94824 0.194064 -1.26583e-18)
(3.6567 -2.93035 1.29581e-18)
(7.79227 0.595876 5.35444e-19)
(3.79339 1.89182 -2.40159e-20)
(5.57787 -4.07738 7.29096e-19)
(5.53918 -4.11968 -1.68685e-18)
(6.41601 2.52527 -3.17149e-20)
(6.2593 -0.408119 0)
(4.05538 -0.187995 -1.58271e-19)
(4.10552 -0.290848 0)
(4.04168 -0.277161 1.47871e-19)
(4.05224 1.40375 -1.80088e-18)
(6.35428 -1.45484 -1.19176e-19)
(6.45044 -1.41136 0)
(6.62749 -1.39309 1.06991e-20)
(6.64339 -1.31611 -2.54889e-20)
(7.15871 -1.38246 7.32972e-20)
(7.23549 -1.34051 -2.5739e-19)
(7.96849 -0.730125 -1.56949e-19)
(7.89075 -0.735237 1.5603e-19)
(8.00113 -0.637468 0)
(4.18038 0.622895 -4.47616e-21)
(4.12313 0.57905 -2.17363e-18)
(3.68515 0.390303 5.44864e-18)
(6.67831 -1.08891 6.74597e-21)
(6.65397 -1.17208 0)
(6.59247 -4.118 2.69215e-19)
(6.66455 -4.13176 -2.60776e-19)
(5.97469 -3.91701 -3.51791e-18)
(6.00307 -3.95509 1.76698e-18)
(5.46754 -4.14746 -8.68763e-19)
(5.26374 -4.00758 -7.85807e-19)
(7.72251 0.866903 4.97046e-19)
(5.64388 -3.4754 -1.53081e-18)
(5.53917 -3.43957 1.33688e-18)
(6.58717 -0.65151 -3.69349e-17)
(6.62374 -0.737766 -2.55465e-17)
(3.93691 -2.65936 3.91471e-20)
(3.84135 -2.64877 0)
(8.10946 -0.967509 8.03993e-19)