/*--------------------------------*- C++ -*----------------------------------*\
  =========                 |
  \\      /  F ield         | OpenFOAM: The Open Source CFD Toolbox
   \\    /   O peration     | Website:  https://openfoam.org
    \\  /    A nd           | Version:  6
     \\/     M anipulation  |
\*---------------------------------------------------------------------------*/
FoamFile
{
    version     2.0;
    format      ascii;
    class       volScalarField;
    location    "1300";
    object      nut;
}
// * * * * * * * * * * * * * * * * * * * * * * * * * * * * * * * * * * * * * //

dimensions      [0 2 -1 0 0 0 0];

internalField   nonuniform List<scalar> 
29884
(
0.276429
0.225734
0.122061
0.155995
0.15636
0.129646
0.194399
0.263988
0.213465
0.141145
0.153475
0.141699
0.15303
0.287554
0.280159
0.191919
0.287441
0.266264
0.279596
0.172595
0.277991
0.118572
0.142525
0.140649
0.144303
0.15503
0.194308
0.219079
0.150187
0.253618
0.148662
0.162948
0.195189
0.185294
0.143751
0.147361
0.249495
0.166586
0.179348
0.187866
0.231688
0.18485
0.176325
0.200849
0.183851
0.166844
0.175575
0.176362
0.136636
0.170882
0.167685
0.174263
0.192998
0.275253
0.263382
0.267677
0.187117
0.284174
0.262154
0.266527
0.19847
0.19035
0.135275
0.171053
0.166634
0.172805
0.28048
0.204232
0.302682
0.211424
0.141248
0.149598
0.143864
0.10938
0.318099
0.280964
0.234026
0.231139
0.22585
0.211593
0.180377
0.197641
0.113993
0.142309
0.120215
0.0973067
0.148767
0.156843
0.139468
0.0721233
0.144976
0.156849
0.100577
0.0636522
0.151739
0.000395777
0.139826
0.139898
0.149685
0.0662798
0.139775
0.13924
0.16978
0.177287
0.153406
0.196347
0.0781864
0.0766584
0.153771
0.138922
0.162698
0.000103261
0.13587
0.119222
0.141741
0.142048
0.149594
0.111811
0.147722
0.136923
0.139772
0.141075
0.161364
0.140057
0.136848
0.262174
0.225261
0.203595
0.301174
0.147671
0.143008
0.147254
0.254156
0.237456
0.12996
0.144135
0.165756
0.15209
0.163634
0.163789
0.155518
0.161982
0.1732
0.157253
0.170848
0.173922
0.160413
0.165428
0.17855
0.173859
0.17147
0.0948124
0.0831992
0.183532
0.248968
0.215606
0.198976
0.175119
0.229465
0.201268
0.189133
0.156067
0.154249
0.172894
0.000280636
0.000277098
0.204638
0.160426
0.139492
0.139511
0.212178
0.139194
0.139029
0.115693
0.118379
0.151786
0.143984
0.188945
0.142637
0.155966
0.145644
0.128971
0.131167
0.135136
0.117924
0.132556
0.139599
0.139232
0.155496
0.150259
0.155927
0.14149
0.136651
0.14354
0.146341
0.146716
0.141184
0.146817
0.151878
0.149794
0.218061
0.177376
0.153688
0.142319
0.150028
0.136243
0.144662
0.128495
0.13976
0.18514
0.174533
0.215516
0.219186
0.194835
0.257685
0.0433168
0.101004
0.0374399
0.112311
0.0391728
0.0371744
0.0611001
0.137482
0.11972
0.0855353
0.0348131
0.0411882
0.0542373
0.00648492
0.0450818
0.0514399
0.0379633
0.048161
0.0468474
0.0504149
0.0467948
0.0452831
0.138036
0.145144
0.0190306
0.0305605
0.000675064
0.0421613
0.0301907
0.0471085
0.123445
0.0408113
0.0382232
0.0967691
0.0721953
0.0540409
0.078425
0.114599
0.11138
0.0373835
0.0373245
0.0444644
0.0418048
0.083566
0.0870966
0.0606807
0.102867
0.018842
0.000953027
0.0826203
0.0341031
0.0595408
0.122809
0.122471
0.0339918
0.0874232
0.0888503
0.0473754
0.0306468
0.0273998
0.0768993
0.0716586
0.0543585
0.0577645
0.0251263
0.150776
0.0464182
0.129539
0.0905858
0.138249
0.116805
0.116569
0.0328193
0.000224732
0.137778
0.048786
0.0466454
0.0474839
0.0220506
0.043343
0.0440741
0.108568
0.0464757
0.0464225
0.0339785
0.059997
0.0419907
0.0434554
0.0423977
0.0538219
0.059908
0.0755953
0.131576
0.111213
0.112136
0.112858
0.110372
0.0421951
0.0143229
0.0157152
0.0474266
0.0525355
0.0434417
0.0588325
0.0593294
0.0639427
0.063884
0.0586219
0.0587806
0.0496948
0.089706
0.0411102
0.0422314
0.0443664
0.03918
0.111286
0.112813
0.112953
0.111365
0.041764
0.0403148
0.137686
0.0862232
0.0478566
0.0460998
0.0596128
0.121245
0.0423939
0.111756
0.135672
0.0466784
0.0506343
0.0489473
0.0483213
0.0723352
0.0715358
0.0654511
0.0873906
0.0883338
0.0859973
0.0627042
0.0571937
0.0542925
0.05544
0.0578015
0.0635333
0.073892
0.132633
0.121291
0.110022
0.110206
0.120622
0.133036
0.000465509
0.0405404
0.0593839
0.0559974
0.136996
0.144319
0.129453
0.100206
0.0956635
0.0605173
0.0445135
0.0471156
0.0428724
0.117181
0.126847
0.122672
0.131549
0.0394578
0.0459364
0.0423731
0.0426149
0.0891726
0.0853963
0.0837039
0.091298
0.049714
0.0517594
0.0531637
0.0435844
0.0423988
0.0450083
0.0368395
0.0833507
0.0710546
0.092443
0.0849337
0.0882884
0.089863
0.0203078
0.137246
0.138468
0.139449
0.138704
0.0403979
0.0421038
0.0478179
0.0470764
0.0450794
0.0597417
0.0611743
0.0339892
0.0386951
0.0392325
0.014526
0.0535082
0.0569254
0.0506203
0.0719258
0.0795767
0.0739958
0.0764983
0.0502839
0.0555322
0.0533369
0.0523931
0.13003
0.0645033
0.0620532
0.0666794
0.0605003
0.0550797
0.0576988
0.0396183
0.0414653
0.041239
0.0397014
0.151318
0.149988
0.13542
0.0590458
0.0561013
0.0589619
0.0550813
0.122036
0.137935
0.0756671
0.085261
0.130567
0.145265
0.139394
0.13049
0.151492
0.00583553
0.124268
0.125681
0.0758596
0.0394391
0.0418496
0.04386
0.0382611
0.0818292
0.0907104
0.0867044
0.0862816
0.13794
0.137755
0.138011
0.139664
0.139603
0.165779
0.151157
0.157552
0.15894
0.140569
0.144551
0.142475
0.142412
0.0295798
0.0274873
0.025978
0.0303174
0.10421
0.103067
0.106687
0.0449241
0.0421234
0.0421585
0.0446214
0.136938
0.13469
0.136192
0.000672038
0.00435375
0.138662
0.0106748
0.119842
0.139542
0.138715
0.000940895
0.00127675
0.139028
0.13905
0.13922
0.138851
0.0681946
0.138493
0.122484
0.000262795
0.000317915
0.137308
0.0358746
0.229789
0.139308
0.255864
0.126304
0.140703
0.138872
0.000661945
0.141467
0.134188
0.140306
0.137779
0.0595304
0.122969
0.137847
0.123149
0.134737
0.144545
0.12962
0.124438
0.170449
0.210823
0.24067
0.105066
0.104787
0.139036
0.139019
0.139744
0.13958
0.130123
0.00579933
0.128492
0.121822
0.104954
0.139106
0.1149
0.139101
0.139078
0.139047
0.00271017
0.138402
0.138617
0.0594802
0.0619046
0.0620089
0.122554
0.243786
0.209502
0.124411
0.120443
0.124778
0.101994
0.107227
0.12763
0.128376
0.184436
0.204768
0.128488
0.252026
0.13823
0.138334
0.253144
0.207076
0.000871972
0.126517
0.26136
0.0962535
0.141822
0.142993
0.000359449
0.0762667
0.069951
0.137481
0.139563
0.139353
0.108533
0.121062
0.131253
0.129529
0.0399318
0.0398495
0.144021
0.141445
0.144977
0.139515
0.139258
0.00102462
0.13891
0.137326
0.136081
0.137801
0.138057
0.138277
0.183991
0.133323
0.136239
0.13013
0.132727
0.160398
0.16621
0.199387
0.177096
0.121002
0.13755
0.133415
0.141423
0.133579
0.12528
0.145777
0.159897
0.150059
0.1467
0.12333
0.11947
0.0567555
0.0521821
0.048279
0.0388274
0.139015
0.140646
0.142119
0.253604
0.194558
0.0871973
0.0935027
0.200847
0.172055
0.196885
0.14554
0.159303
0.153758
0.164504
0.234709
0.189108
0.181563
0.0599528
0.0587634
0.138765
0.138569
0.139558
0.138288
0.157117
0.111406
0.114739
0.118391
0.137577
0.138184
0.137555
0.137641
0.137233
0.139669
0.162072
0.153501
0.132934
0.139639
0.142568
0.145209
0.135647
0.136247
0.212155
0.26775
0.237871
0.10925
0.113571
0.116041
0.00433144
0.00473175
0.136133
0.133509
0.0653729
0.0611865
0.165916
0.168773
0.162053
0.0318763
0.0302274
0.0635762
0.0631247
0.0378737
0.038608
0.0438363
0.0775146
0.073254
0.0757666
0.0292469
0.070101
0.0061093
0.0424519
0.0180621
0.0608835
0.0347241
0.00650553
0.0672849
0.0348133
0.00785642
0.00652894
0.00698985
0.0896455
0.0899854
0.0720049
0.0627478
0.0630838
0.0770613
0.0507725
0.049899
0.0173467
0.0754183
0.074646
0.0541619
0.0558929
0.055863
0.062155
0.0629241
0.0631312
0.0293629
0.0754812
0.075314
0.0110051
0.00282465
0.0350006
0.0367974
0.0328629
0.0912933
0.0947281
0.0257744
0.0419123
0.0266391
0.081796
0.0770085
0.0687246
0.0104125
0.0659378
0.0664705
0.0694439
0.0527925
0.0557444
0.0614335
0.0593711
0.0512585
0.0944363
0.0640283
0.0326448
0.069749
0.0133614
0.0160262
0.106497
0.0978216
0.0300988
0.0674521
0.0240897
0.0458505
0.016344
0.0605722
0.0626452
0.0925879
0.00157188
0.0454319
0.0712008
0.0721868
0.0463441
0.0453229
0.0747016
0.0478764
0.0482667
0.0464548
0.00155205
0.0676436
0.0365886
0.0373226
0.0220741
0.0674855
0.0673513
0.0405901
0.0422585
0.031394
0.0319611
0.0638024
0.0678877
0.0384861
0.0764699
0.0735749
0.104564
0.0445258
0.00842386
0.0647942
0.0647322
0.0354635
0.0523822
0.0547926
0.0110201
0.00164831
0.0472098
0.0348008
0.06975
0.0695465
0.0411441
0.0385596
0.0510236
0.0516198
0.0381169
0.00930432
0.0472471
0.0387558
0.0384297
0.0292441
0.0576689
0.0354182
0.00142574
0.0248774
0.0888498
0.00569773
0.00573747
0.0959985
0.0960367
0.118745
0.0570035
0.0722589
0.00955341
0.0779434
0.0699981
0.0715927
0.0641144
0.0427773
0.0592036
0.0541331
0.0512763
0.0793498
0.00676339
0.0134345
0.0518548
0.0669719
0.0704636
0.0465337
0.0490749
0.055448
0.0773495
0.0572798
0.0568952
0.0501605
0.0713024
0.0669473
0.0653275
0.0618169
0.0587913
0.0404496
0.0362801
0.0348652
0.0342052
0.0535033
0.0690397
0.0340713
0.0440614
0.0423522
0.0648632
0.082915
0.047047
0.0347913
0.0622902
0.0633636
0.045783
0.136176
0.107612
0.0566818
0.0575624
0.0555351
0.0851621
0.0484974
0.0685466
0.0583566
0.0760246
0.0758773
0.0347103
0.0632985
0.0237289
0.0823313
0.0547451
0.0619693
0.0628725
0.0433597
0.0559713
0.0555332
0.0444105
0.135304
0.0874612
0.0185997
0.0180484
0.0515993
0.0699368
0.0689286
0.0837601
0.0787442
0.0770595
0.0356758
0.0409843
0.0385433
0.0105072
0.0534605
0.0536338
0.0547719
0.0742299
0.0744379
0.0727655
0.0726743
0.0520492
0.0514014
0.0292877
0.0637388
0.0648336
0.0639311
0.0602098
0.0714479
0.0139656
0.0564377
0.0500782
0.0450723
0.0192143
0.0693067
0.0700147
0.0851199
0.0859982
0.0339949
0.0372467
0.0670089
0.0553495
0.0254539
0.0868905
0.087197
0.0475408
0.0605588
0.0378018
0.00506195
0.125934
0.124244
0.068483
0.0725714
0.0735925
0.0820977
0.0831176
0.0676723
0.103564
0.0199553
0.023515
0.0764325
0.0795103
0.0733677
0.059745
0.0660209
0.0620589
0.0642859
0.0418977
0.0398614
0.0895524
0.0899714
0.0537541
0.0311922
0.0310632
0.0659389
0.0667681
0.0161323
0.0111685
0.00783692
0.0578516
0.0445676
0.066839
0.0677121
0.00475456
0.00409362
0.0644881
0.0641247
0.0654299
0.0459049
0.0435732
0.0578523
0.0512971
0.0669032
0.0469032
0.0462947
0.0495369
0.0167163
0.0175777
0.104964
0.0652868
0.0187938
0.0179415
0.0708519
0.0706082
0.0679805
0.0674211
0.0685326
0.0515415
0.0510984
0.00437728
0.0570418
0.0584163
0.105873
0.0123528
0.0122232
0.0171065
0.0345188
0.0423721
0.0396051
0.0750592
0.03515
0.0943694
0.0956794
0.115752
0.110041
0.0535134
0.0344274
0.0351515
0.0387963
0.0401322
0.100658
0.100095
0.0988704
0.0556903
0.0605952
0.0423109
0.0115911
0.0181157
0.063522
0.0266501
0.0276688
0.0521913
0.0531727
0.0909447
0.0503581
0.0511789
0.0554974
0.0525298
0.0683665
0.0688969
0.0677444
0.0692505
0.0703502
0.0516077
0.0711245
0.00689164
0.0229635
0.0273642
0.0154263
0.0158351
0.0513936
0.0647979
0.0504728
0.0537405
0.0582318
0.0583124
0.0580031
0.0587846
0.0570737
0.0488937
0.0475749
0.0335357
0.0369448
0.0343599
0.066178
0.066659
0.0654821
0.00419938
0.065398
0.106161
0.103572
0.0653797
0.0645795
0.0655242
0.0649293
0.0664478
0.0397302
0.0417711
0.0410809
0.0403504
0.0584368
0.0541534
0.0425504
0.095074
0.0945686
0.0943926
0.062066
0.0885941
0.0300185
0.0265218
0.0227147
0.0321319
0.0300486
0.033226
0.105509
0.0543512
0.0550041
0.0745461
0.106993
0.104107
0.0665607
0.0966698
0.0502448
0.048802
0.04997
0.0438658
0.0425345
0.0447256
0.0853097
0.04499
0.0716895
0.0718217
0.104574
0.0432991
0.0772908
0.0770623
0.0771898
0.0381751
0.000966577
0.0662714
0.0488392
0.0473776
0.0121325
0.000402371
0.102178
0.0525807
0.107902
0.0493286
0.0502325
0.0782505
0.0573976
0.0796185
0.112529
0.0156931
0.0763879
0.0760417
0.0787497
0.0337738
0.101195
0.0998744
0.102132
0.0689242
0.0699807
0.000670477
0.0509964
0.0498481
0.100139
0.10286
0.0981238
0.000776245
0.000801243
0.0922312
0.0243689
0.0207591
0.0471312
0.0492174
0.0486179
0.0476859
0.0879099
0.0308317
0.0298884
0.0597953
0.000607784
0.0710733
0.0713409
0.0805332
0.0792997
0.0700683
0.0181085
0.0645345
0.0631155
0.0983761
0.0986563
0.0180509
0.086172
0.0868449
0.0868353
0.0605109
0.0604768
0.0740734
0.0872747
0.0674442
0.0544745
0.0020019
0.0434924
0.0610795
0.000567992
0.0359076
0.091817
0.054678
0.00523705
0.0492678
0.0477817
0.0618336
0.0629778
0.0876673
0.0836689
0.0590775
0.0599216
0.0563486
0.0777541
0.0789297
0.0772972
0.0770455
0.0765159
0.000952603
0.0239839
0.000505029
0.0572621
0.00509978
0.135977
0.136185
0.136294
0.135949
0.0670283
0.0558518
0.0558294
0.137778
0.13811
0.0576922
0.0788243
0.0772408
0.0770647
0.0449545
0.0673917
0.0677431
0.0694568
0.093576
0.0897469
0.0550267
0.0513206
0.0524295
0.000535221
0.0354969
0.0366942
0.0375611
0.0348404
0.0762135
0.0762702
0.0327156
0.0936854
0.0952067
0.0770345
0.0608971
0.0614096
0.057619
0.0442993
0.0425716
0.0455994
0.0340359
0.0329472
0.127973
0.066284
0.0376627
0.0373271
0.0666807
0.0675127
0.0927247
0.0927473
0.0934786
0.0920307
0.0728003
0.0727242
0.0636241
0.0651637
0.0653202
0.0651514
0.0984781
0.0962528
0.000311124
0.0445931
0.0454115
0.0176497
0.0146677
0.000438629
0.000657174
0.000628695
0.0398962
0.0392995
0.00838851
0.00881258
0.0912419
0.0758937
0.0833519
0.0652068
0.0392512
0.0172115
0.0164483
0.0190983
0.0639691
0.0622103
0.0643804
0.0624847
0.000443504
0.000764669
0.000797715
0.00117114
0.00935269
0.0126996
0.0356447
0.0345947
0.000858999
0.0444447
0.0258905
0.0922381
0.09201
0.0945494
0.0912592
0.0919405
0.0909745
0.105319
0.10687
0.104203
0.102486
0.0724971
0.0544883
0.0578607
0.0537917
0.0527279
0.053408
0.0509832
0.116334
0.105302
0.110274
0.0945471
0.0954499
0.0955201
0.0745156
0.0708397
0.0708585
0.0700783
0.0680769
0.0723114
0.0699896
0.0697078
0.0690325
0.0698557
0.000410463
0.000691406
0.0895751
0.0904527
0.0899849
0.0900092
0.0361145
0.0666025
0.0669812
0.065862
0.0918376
0.0931377
0.0935593
0.091287
0.0576427
0.058078
0.0566512
0.155388
0.0395615
0.0612199
0.0619314
0.0607325
0.0625826
0.0784544
0.084441
0.0617377
0.0625666
0.0687774
0.0672423
0.0258426
0.128379
0.0347389
0.0332934
0.105574
0.00036059
0.0524571
0.0665492
0.0681725
0.0686674
0.0675368
0.0837067
0.0846886
0.00803037
0.0454451
0.0449703
0.0467734
0.0392618
0.0413926
0.0358905
0.0449428
0.0486067
0.0475386
0.00455809
0.00440626
0.0485614
0.049281
0.0634025
0.0631278
0.0642281
0.000335316
0.0571618
0.000629226
0.0662414
0.0643466
0.0624949
0.0640086
0.0622102
0.00162035
0.0476793
0.0488409
0.0482683
0.0765175
0.0633937
0.0691207
0.0686195
0.0585568
0.0581313
0.0567699
0.0599011
0.0428552
0.0397966
0.0418191
0.0404942
0.0560521
0.0529647
0.0559827
0.0599875
0.0010633
0.00423892
0.0901891
0.0905545
0.0897956
0.0908652
0.0551012
0.0557129
0.0560807
0.0357522
0.059535
0.0596115
0.062493
0.0618326
0.0610353
0.0615648
0.0950398
0.0969933
0.0956789
0.0969774
0.0982644
0.0477166
0.0460187
0.0461245
0.0475229
0.103276
0.105056
0.104384
0.103806
0.0381904
0.0362871
0.0405705
0.053411
0.0523192
0.0680271
0.0682671
0.0671533
0.0608738
0.0579963
0.0705239
0.072063
0.120628
0.119039
0.119334
0.120405
0.0818712
0.0784188
0.0795127
0.0586444
0.0597288
0.0385142
0.0352103
0.0345596
0.0187813
0.0591874
0.0579095
0.0604689
0.050136
0.0507272
0.0389726
0.0864011
0.0883414
0.0881416
0.0864249
0.00108558
0.0540117
0.0552519
0.0543286
0.0548967
0.137027
0.137189
0.0554408
0.0537226
0.0543958
0.0547568
0.0523996
0.0526177
0.05115
0.0298978
0.0331737
0.0290947
0.0475472
0.048945
0.0475918
0.0489694
0.0649704
0.0691506
0.0598102
0.0441474
0.0434575
0.0443972
0.0431082
0.00758535
0.0708604
0.00737897
0.0072688
0.0927983
0.0920756
0.0921433
0.0926866
0.0637792
0.0497847
0.0492667
0.0696512
0.0691505
0.0698975
0.101412
0.0861066
0.0647455
0.0658263
0.0635489
0.0512401
0.0457533
0.0478708
0.0488036
0.036991
0.0768034
0.0761942
0.011037
0.0137816
0.0525715
0.0515041
0.0517505
0.0011862
0.0522762
0.0694936
0.0744302
0.0739038
0.0758402
0.0639918
0.0388913
0.0373203
0.0395548
0.111004
0.108381
0.109775
0.0462677
0.0461095
0.128498
0.129548
0.0458347
0.0475213
0.0489438
0.0991259
0.0954087
0.0893336
0.0128483
0.0159453
0.0144755
0.0114675
0.0112532
0.0118918
0.00984351
0.0152601
0.0514924
0.0592287
0.060324
0.0557485
0.0553632
0.056749
0.0663551
0.0654578
0.0697907
0.0694663
0.0924096
0.0929176
0.0425568
0.0442883
0.104431
0.118923
0.0966992
0.0975326
0.0837199
0.086073
0.0822715
0.0859124
0.0878001
0.0868377
0.0231551
0.0277325
0.0606745
0.0592361
0.0598092
0.0601149
0.0740444
0.043976
0.0447824
0.0454207
0.0448265
0.0441918
0.0461141
0.0427889
0.000841525
0.0473701
0.0478602
0.0487766
0.0740052
0.069803
0.0388315
0.0378949
0.0666305
0.0658114
0.0670643
0.0761897
0.0823963
0.0691702
0.0684285
0.0691259
0.0686595
0.0335929
0.0925651
0.0915442
0.0416902
0.041109
0.0421781
0.040563
0.061848
0.0624819
0.0612348
0.00609652
0.00666219
0.00526438
0.0829965
0.0845682
0.0805246
0.0406655
0.0395076
0.0471637
0.0452671
0.0513443
0.0520029
0.0521665
0.0638977
0.0593184
0.0612884
0.061588
0.0798935
0.0422634
0.0406383
0.0412426
0.0416946
0.111223
0.109342
0.109482
0.110991
0.0722546
0.0558242
0.0580226
0.0556931
0.0587066
0.0674354
0.0926946
0.0923346
0.0933816
0.0917448
0.0910606
0.092029
0.0924889
0.0907374
0.0346504
0.0497215
0.0493541
0.0701415
0.0703101
0.000602379
0.00631485
0.070937
0.0704281
0.0590011
0.0598096
0.0594748
0.0588263
0.0602109
0.0673393
0.0658343
0.00681092
0.00819975
0.0559246
0.0544238
0.0554482
0.0549987
0.0742489
0.0888472
0.0878971
0.088475
0.00820431
0.0541456
0.053254
0.0544872
0.0528342
0.0408578
0.0420569
0.0409645
0.0418348
0.0847374
0.0843929
0.0837399
0.0768751
0.0251259
0.0241424
0.0235464
0.0255633
0.0284458
0.0296026
0.0694836
0.070327
0.0701718
0.0704447
0.0447199
0.0465739
0.0458884
0.0453835
0.0762358
0.0766148
0.0553672
0.0563731
0.0563417
0.0553273
0.0394347
0.0452147
0.045163
0.0412547
0.0246442
0.0220032
0.0423269
0.043605
0.0724933
0.0719452
0.0726305
0.0987715
0.0981309
0.0977677
0.032991
0.0316887
0.032442
0.0574088
0.0579234
0.0583921
0.056922
0.0348259
0.0432917
0.0427829
0.0440335
0.0419789
0.00429105
0.037249
0.0433325
0.048559
0.0573933
0.0582929
0.0583309
0.057278
0.128142
0.0898959
0.0891654
0.0891956
0.0898003
0.0588743
0.059874
0.0587196
0.036144
0.0917806
0.0911525
0.0917929
0.0563345
0.0579331
0.0354805
0.0401042
0.0379617
0.0646056
0.0629393
0.0649642
0.0706021
0.0368126
0.0750744
0.0507257
0.0466208
0.0887268
0.0880452
0.0913773
0.0100939
0.00836566
0.0113331
0.0617486
0.0629354
0.064698
0.0614696
0.0315864
0.030715
0.0877546
0.085376
0.0860355
0.0872118
0.0914556
0.0909233
0.0438318
0.0457875
0.0909846
0.0892754
0.0910381
0.0889887
0.123935
0.124351
0.0407799
0.0896993
0.089513
0.0894184
0.0735556
0.0745193
0.0732904
0.0164345
0.0407675
0.0399021
0.0429655
0.0380553
0.0440677
0.0462996
0.045295
0.0450678
0.04726
0.0454951
0.0464078
0.10863
0.0927766
0.107981
0.0972732
0.0242106
0.0804791
0.0795464
0.114079
0.115691
0.0463121
0.0454056
0.0451459
0.0464527
0.091034
0.0903326
0.120481
0.118673
0.0387565
0.0601513
0.0611272
0.0613928
0.0281173
0.0247204
0.0272894
0.0247331
0.0287839
0.0315846
0.0628655
0.0636944
0.0626726
0.0361425
0.0301969
0.033641
0.0330422
0.0580706
0.0570514
0.108886
0.0991304
0.0503783
0.0539791
0.0530722
0.0506485
0.0625386
0.019572
0.0211382
0.022891
0.0184617
0.107786
0.106031
0.108713
0.0336727
0.0352838
0.0352974
0.0358259
0.0347674
0.0362969
0.0745819
0.0776135
0.0266926
0.028038
0.0956389
0.0651169
0.0902692
0.0890788
0.0828882
0.00377291
0.0701512
0.0692127
0.0697125
0.0459507
0.0165486
0.0370864
0.083112
0.0745346
0.0720584
0.0895965
0.0791349
0.0799811
0.0790782
0.0532723
0.0547863
0.000267388
0.0547629
0.0398516
0.114969
0.113036
0.113641
0.114402
0.0599729
0.0611324
0.060883
0.0601927
0.102824
0.103805
0.102126
0.104377
0.037736
0.0383611
0.0388593
0.0371636
0.0650452
0.0645842
0.0652829
0.0642873
0.0439534
0.0446752
0.0424674
0.0302185
0.0352956
0.0445476
0.0657005
0.0634748
0.12356
0.122384
0.0554959
0.0267962
0.0944293
0.0949663
0.0953718
0.0320926
0.0675177
0.066309
0.0649464
0.0686742
0.0696523
0.0635481
0.062487
0.062776
0.0632588
0.048131
0.04474
0.0469765
0.0456424
0.088454
0.0880544
0.0887162
0.0877579
0.0762922
0.0747071
0.0751467
0.0758372
0.0683892
0.06826
0.0687826
0.0678352
0.0335084
0.0313018
0.0329817
0.0317051
0.0433708
0.0420321
0.0613516
0.0587051
0.0580081
0.0611071
0.114472
0.117239
0.11569
0.0728946
0.0622307
0.0598621
0.060746
0.0592556
0.0552955
0.0585391
0.0546093
0.0557901
0.0521824
0.0537689
0.0251094
0.0657072
0.0651506
0.000253178
0.0480162
0.0495649
0.048309
0.0492082
0.0668795
0.0553577
0.0636301
0.0447027
0.00412041
0.00431213
0.0041288
0.0582872
0.0593689
0.127917
0.0531988
0.0523208
0.0554241
0.0543982
0.0553545
0.0616732
0.0617438
0.0616471
0.0624703
0.0671355
0.0687468
0.067722
0.0647641
0.0667436
0.0420995
0.0439856
0.0428571
0.00022021
0.0607542
0.0611668
0.109954
0.108447
0.0681326
0.069434
0.0666402
0.0707518
0.0308496
0.0339359
0.0346602
0.0370027
0.11874
0.117588
0.0474651
0.0471917
0.0481363
0.0465555
0.0570856
0.0553338
0.0527766
0.110638
0.108081
0.109221
0.109428
0.0856843
0.0848479
0.0860075
0.0843791
0.0829541
0.0843205
0.0841956
0.0829786
0.0758651
0.0762558
0.0749674
0.0330468
0.0337362
0.0339829
0.0326825
0.0408586
0.0432027
0.111379
0.0204369
0.0239959
0.0230868
0.00110436
0.043231
0.0422191
0.0425374
0.0748411
0.0731339
0.0811021
0.0819765
0.0807604
0.0822218
0.026922
0.0237312
0.086646
0.0863828
0.0858527
0.087145
0.116609
0.117582
0.118041
0.116081
0.044527
0.0453757
0.0439409
0.0460623
0.0701629
0.0704325
0.0698395
0.0421162
0.04314
0.0434417
0.0416959
0.0753692
0.0758356
0.0751832
0.0539292
0.0883839
0.0876178
0.0884964
0.0875739
0.0243076
0.0299456
0.0140418
0.011236
0.0627468
0.00458065
0.0032705
0.00300141
0.02913
0.0368745
0.0116046
0.000644096
0.000874896
0.000609191
0.000288889
0.0286575
0.00037454
0.000439737
0.0103447
0.0102024
0.0469489
0.0113573
0.010393
0.138809
0.0168792
0.128875
0.0144291
0.0303927
0.030388
0.00745717
0.000536137
0.0814838
0.0139245
0.00604706
0.00639192
0.00986081
0.108214
0.137037
0.0160253
0.0170869
0.0297662
0.002827
0.0893692
0.13724
0.0664513
0.122604
0.119169
0.050652
0.00333876
0.0150856
0.000390796
0.000586441
0.00056169
0.0249946
0.0234698
0.00678012
0.0253565
0.00279992
0.00328939
0.0231235
0.000639736
0.0594436
0.030811
0.138658
0.138538
0.000460614
0.0226854
0.0216818
0.0129457
0.00814019
0.0221313
0.0217266
0.0225514
0.0533434
0.0553756
0.00673248
0.0571771
0.137502
0.137157
0.0211773
0.000574026
0.00521558
0.00412823
0.0533846
0.0120718
0.0185725
0.000491473
0.019598
0.0237509
0.130131
0.00315462
0.0154003
0.0133389
0.138385
0.114239
0.00431633
0.0802824
0.0379071
0.00772329
0.13515
0.0247026
0.00232676
0.0352427
0.0341462
0.00890134
0.0203478
0.0211743
0.0230085
0.0186338
0.0264195
0.0252032
0.0260956
0.0365614
0.00175981
0.019781
0.0350671
0.136131
0.0173904
0.11894
0.0153523
0.130201
0.000637418
0.0221368
0.0210642
0.022078
0.0685733
0.0270189
0.027885
0.00590733
0.000366038
0.00143759
0.00272506
0.0758954
0.0722418
0.01771
0.0285534
0.0054251
0.00676095
0.00262075
0.0295334
0.031182
0.1499
0.00219986
0.137204
0.137627
0.0539068
0.0155205
0.0351414
0.0642345
0.0634154
0.034575
0.0331474
0.0383358
0.0284357
0.00825586
0.00408106
0.0374929
0.0157563
0.0219353
0.0362844
0.0370027
0.034195
0.00517713
0.00831253
0.057768
0.0568961
0.033173
0.030413
0.0283309
0.0353782
0.0365281
0.0583166
0.00387696
0.00396841
0.0469139
0.138553
0.00393552
0.00519385
0.00464652
0.00314506
0.00423021
0.00427912
0.00562648
0.0179475
0.00384592
0.0044017
0.00586269
0.00427619
0.00578696
0.0305145
0.0298273
0.0334313
0.004496
0.00624587
0.0356448
0.00057287
0.000900671
0.0308184
0.00298283
0.0198835
0.0178397
0.024297
0.0232469
0.00777123
0.00860651
0.00553678
0.00721368
0.123305
0.00502747
0.0785169
0.0776091
0.0773885
0.038858
0.0273549
0.00629391
0.0204542
0.00592126
0.131212
0.0257269
0.00253374
0.0118803
0.0111375
0.0135951
0.0100274
0.00684597
0.140005
0.0236982
0.0257315
0.00411762
0.00327802
0.0591667
0.0685504
0.153517
0.148115
0.00743475
0.0183156
0.138774
0.0225937
0.0226323
0.000582284
0.00784662
0.0141886
0.117629
0.12016
0.00894359
0.0508008
0.00955612
0.0082975
0.00943662
0.00436638
0.05949
0.0601592
0.0613743
0.00121006
0.0351832
0.13205
0.13
0.114981
0.0624327
0.0189794
0.0380662
0.0326226
0.0668365
0.13919
0.139067
0.0228391
0.137483
0.00173178
0.00217268
0.00911727
0.0252301
0.0116556
0.0409481
0.0410235
0.039529
0.0396047
0.00448609
0.00278477
0.0019735
0.157593
0.0532411
0.0116896
0.12094
0.129636
0.130179
0.0361438
0.0720845
0.0700481
0.166414
0.14833
0.00144565
0.00827077
0.0596189
0.0585004
0.00668989
0.0061239
0.0308306
0.0300955
0.0816804
0.0797744
0.0588774
0.0612502
0.0418365
0.0149331
0.0137313
0.0651649
0.0365866
0.0362868
0.0325687
0.0287236
0.0355747
0.0167727
0.00474886
0.0253241
0.00488498
0.138867
0.0106683
0.0119144
0.024017
0.0418902
0.0237989
0.0238604
0.101115
0.0941708
0.109462
0.0241245
0.0616861
0.0156103
0.138156
0.033744
0.00176143
0.0373354
0.00372327
0.00383947
0.137744
0.0304876
0.030362
0.015585
0.137737
0.0948132
0.100891
0.0222839
0.0383242
0.0389388
0.0785496
0.0793896
0.036394
0.0332799
0.0361644
0.0340481
0.0357062
0.0790078
0.0699934
0.136073
0.136597
0.0661719
0.0661922
0.0676684
0.00717593
0.00615019
0.0708431
0.0165537
0.136825
0.0639049
0.0659737
0.0678465
0.0508314
0.0482242
0.0502276
0.114787
0.147141
0.13936
0.0693039
0.0680435
0.0686839
0.122438
0.00608163
0.0300976
0.0236675
0.0153785
0.0150527
0.0987829
0.0248395
0.0390844
0.0438173
0.0217809
0.170525
0.0131167
0.0387648
0.0143415
0.0195264
0.0104284
0.0141746
0.0145624
0.121681
0.124122
0.123062
0.027679
0.0281514
0.0116585
0.0684468
0.0153755
0.01514
0.0329572
0.0295422
0.029084
0.0415993
0.0720192
0.0365805
0.0392574
0.133024
0.127006
0.00187103
0.00244454
0.138676
0.016484
0.00825754
0.0124686
0.119004
0.117501
0.138552
0.109973
0.138663
0.132936
0.132173
0.0201931
0.0238115
0.126055
0.126949
0.12484
0.125456
0.0544298
0.0506429
0.0961773
0.0983735
0.125723
0.123508
0.00319578
0.11883
0.117729
0.0395567
0.138906
0.138736
0.138682
0.0937728
0.090358
0.13767
0.139691
0.138331
0.0613834
0.025248
0.0268768
0.0268787
0.0598524
0.0587973
0.0599439
0.152348
0.153286
0.0623903
0.0291641
0.0308815
0.156644
0.15404
0.0503124
0.0507957
0.0291089
0.0314695
0.000421424
0.0026795
0.0578739
0.00860868
0.010375
0.0110774
0.0763718
0.00087507
0.0013153
0.0549121
0.0555917
0.0178629
0.0080197
0.0077626
0.00898129
0.00557906
0.0239165
0.0244663
0.0267471
0.113218
0.114936
0.018761
0.0141327
0.0151526
0.00619303
0.00703183
0.129493
0.127684
0.133473
0.141942
0.151075
0.109477
0.0519078
0.050829
0.041941
0.0483168
0.0461325
0.0641035
0.0714517
0.0437288
0.0426144
0.0196657
0.0209293
0.138675
0.138601
0.242675
0.227109
0.0299688
0.00803148
0.0322316
0.0106181
0.0117824
0.0103547
0.0102304
0.00714835
0.119521
0.019629
0.0247263
0.0378788
0.0343722
0.0604519
0.0617301
0.0384784
0.0375205
0.0347871
0.0347904
0.0168308
0.0105139
0.0298281
0.00862231
0.0338146
0.136635
0.0129227
0.0137473
0.143337
0.148453
0.0273866
0.0233878
0.020521
0.00944895
0.0388973
0.0401117
0.0506204
0.0399549
0.0394084
0.0593241
0.0241728
0.000595581
0.0410064
0.0415627
0.0166577
0.0130805
0.0155805
0.0825103
0.0832944
0.0823863
0.0492659
0.0728892
0.071718
0.0700027
0.0684479
0.133648
0.0975888
0.0983182
0.0315653
0.0336314
0.0333413
0.0530679
0.0755566
0.01124
0.139919
0.139673
0.13988
0.135136
0.0463756
0.0208317
0.0224048
0.029089
0.0258209
0.0580208
0.0344856
0.0366964
0.0516722
0.0560389
0.0376655
0.0304758
0.0986132
0.104255
0.108702
0.0292441
0.029064
0.0428729
0.0431779
0.0257526
0.0732309
0.0714166
0.0587339
0.128253
0.0377917
0.00532587
0.00598705
0.135299
0.023849
0.0660267
0.00351876
0.0216615
0.0201167
0.0219122
0.019732
0.0260474
0.0503703
0.0102398
0.00854198
0.00777341
0.0953893
0.0327956
0.000971131
0.00155748
0.0656512
0.138264
0.0681518
0.0685255
0.039882
0.111755
0.106755
0.0195736
0.020341
0.0448848
0.0425041
0.0442095
0.065916
0.020948
0.0219772
0.140028
0.140517
0.0356982
0.0220051
0.0201569
0.0348005
0.13877
0.0918646
0.0899619
0.036941
0.0722088
0.0326284
0.00299654
0.00242553
0.00507669
0.0453002
0.0861121
0.00346429
0.183272
0.00243709
0.00456068
0.00693182
0.00428459
0.00360641
0.00378089
0.00268735
0.0036228
0.128982
0.0364477
0.0379617
0.0220886
0.0359049
0.0668615
0.0649404
0.139355
0.139486
0.139277
0.0714947
0.0951333
0.0936808
0.0680345
0.0659849
0.0636166
0.0310824
0.0311356
0.0668445
0.0649768
0.0130215
0.0145206
0.0164004
0.145608
0.150661
0.138169
0.137971
0.0483717
0.119988
0.116206
0.0309709
0.0331641
0.137573
0.137251
0.0039391
0.0625289
0.0616344
0.139086
0.138806
0.00911242
0.133913
0.0659329
0.0725426
0.0557942
0.0256403
0.0206749
0.00391412
0.0251075
0.093793
0.0705422
0.0711142
0.0157793
0.0194582
0.0208196
0.00260415
0.0688828
0.0695338
0.0608101
0.124623
0.125134
0.126104
0.0385139
0.0424688
0.0443083
0.0449883
0.0442591
0.0410683
0.105719
0.107384
0.0451664
0.0392014
0.040023
0.0389325
0.0422259
0.0430756
0.00136085
0.112672
0.113756
0.115777
0.014618
0.0133018
0.0622697
0.0621051
0.136688
0.136668
0.0256407
0.0283046
0.126543
0.127387
0.0391484
0.0395583
0.0386046
0.231465
0.187749
0.08007
0.0783411
0.0121768
0.0136623
0.121235
0.0562087
0.0586228
0.131381
0.130589
0.129772
0.0241422
0.0267796
0.138461
0.138174
0.0437967
0.042754
0.0437176
0.0349722
0.0319922
0.108029
0.107649
0.106557
0.0111684
0.0146723
0.0653883
0.066259
0.0149635
0.138057
0.138236
0.0439936
0.126873
0.122998
0.0168422
0.0624251
0.0656903
0.0349147
0.0353248
0.0365702
0.138246
0.118348
0.103415
0.109826
0.115182
0.0210273
0.0739172
0.138203
0.0205073
0.00188236
0.00338148
0.0571912
0.0566582
0.0149514
0.0705199
0.0394972
0.0364316
0.120509
0.130932
0.0427542
0.0446877
0.0207166
0.0633484
0.0675075
0.0135171
0.0423207
0.0415035
0.0647812
0.00464534
0.00469061
0.121624
0.046731
0.0471443
0.0456983
0.0354102
0.0407777
0.0366953
0.0494054
0.0505786
0.00661733
0.0513986
0.0507884
0.0425258
0.0405843
0.0404647
0.0081522
0.00719809
0.0907805
0.0897992
0.0887637
0.0401
0.0365055
0.0528072
0.0466851
0.0485333
0.00348202
0.0342168