/*--------------------------------*- C++ -*----------------------------------*\
  =========                 |
  \\      /  F ield         | OpenFOAM: The Open Source CFD Toolbox
   \\    /   O peration     | Website:  https://openfoam.org
    \\  /    A nd           | Version:  6
     \\/     M anipulation  |
\*---------------------------------------------------------------------------*/
FoamFile
{
    version     2.0;
    format      ascii;
    class       volScalarField;
    location    "1300";
    object      p;
}
// * * * * * * * * * * * * * * * * * * * * * * * * * * * * * * * * * * * * * //

dimensions      [0 2 -2 0 0 0 0];

internalField   nonuniform List<scalar> 
29884
(
2.79129
0.0922865
0.560858
-2.62063
-0.131474
2.49435
0.111588
-4.40578
-0.831417
1.09808
2.84185
0.677783
-1.24291
-2.37248
0.0313001
-1.92858
-0.324843
-2.19985
-4.43391
-2.95799
-3.46436
0.579957
0.314398
3.41973
-1.53831
1.17498
-0.75712
-1.33442
0.369679
0.393998
3.13016
2.69855
-0.766464
5.31469
1.85637
1.72185
0.83476
2.99407
1.78351
1.00526
0.731515
-1.68918
3.06745
5.07398
-3.58467
0.503863
-2.23517
2.12033
0.625825
2.46811
3.12349
-0.279756
1.21081
-0.855658
-2.92138
4.33029
-2.68358
-1.6614
-3.70662
-0.623601
-0.313101
-0.796513
-0.272321
1.05362
2.11137
-1.91708
1.32243
1.56163
0.718393
1.45484
-0.399113
-1.13395
7.90142
0.721933
0.511815
1.49018
-2.78289
-1.32415
-2.60423
0.820975
2.1193
-3.22182
-0.35479
2.08142
-0.239792
15.1468
0.707973
-0.627118
0.15562
18.9683
0.531438
-2.29614
14.9788
20.348
2.71103
24.064
1.20619
1.31954
0.0796921
20.2658
1.57835
1.73611
0.150834
0.543328
0.351219
-1.85111
18.3052
18.8221
3.10333
1.62929
1.26691
24.0836
-0.0795679
-0.21254
-0.204971
1.92371
2.41804
-0.00855803
3.83125
3.35263
0.849775
2.51375
2.07551
2.71176
-0.360091
3.50615
1.1772
1.45751
-0.734973
2.98858
3.2049
2.86848
-4.30567
-2.28652
-0.206035
-0.655312
2.22534
0.349084
0.332506
0.611457
0.340929
3.08824
1.92413
-1.92224
-2.08848
-1.85982
-1.53524
2.46932
1.96375
2.14656
2.67218
16.5131
17.9149
0.713206
0.612255
1.00014
0.557956
1.15892
0.83574
0.611789
0.935997
3.43081
3.61459
2.73358
25.5913
25.5104
-2.44823
-1.028
1.05452
-5.83283
-2.79313
1.22502
1.24459
-0.37854
-0.226946
2.72744
3.03659
-2.84668
1.9414
1.75243
1.9001
5.31258
5.37043
4.72251
-0.152072
-0.107065
1.24771
1.10873
1.30908
3.20677
0.555468
4.26421
4.84032
-0.29429
-0.37971
2.57022
2.61765
0.715971
-0.0559967
0.130142
0.300369
2.55611
2.46945
1.66492
2.52933
3.92237
0.109352
-0.285396
-0.397423
-0.773451
0.566685
-0.595973
-1.79292
-3.52547
-1.57963
17.2937
2.69453
19.0948
-0.0530255
21.6644
21.9601
-10.8151
2.32766
0.234438
16.5842
22.0607
18.6423
21.5137
11.8706
-7.29152
4.68167
19.035
17.6182
-7.43341
-7.66698
17.7629
17.9073
2.75787
-3.34605
-3.68552
-4.21835
23.7808
17.8251
-6.7619
-4.23746
3.01251
18.0031
19.1905
-8.06246
-9.03685
-5.54645
0.806374
2.71498
2.57108
22.5523
22.2349
21.1756
21.564
-9.81493
-9.01773
-0.712425
3.10244
-6.87303
22.3807
2.40912
19.3547
-8.94352
2.32167
1.92148
19.454
1.32054
1.45881
21.0061
18.977
19.0789
17.5767
18.3217
21.2259
20.9364
-5.33132
-0.855297
17.8166
1.65148
1.60967
3.76896
2.95905
2.61491
-9.64704
25.7298
1.8425
22.1626
17.7805
17.7593
-6.08835
-9.92146
-9.92441
3.20915
17.759
17.8391
-6.27393
-5.28672
18.4251
18.284
18.4459
21.1978
17.3899
16.3673
6.5347
2.74385
2.9807
2.97293
3.26051
20.7738
-5.74275
-6.16101
-9.79602
-6.34863
18.2669
-9.9923
-9.17705
-9.54707
20.2134
20.7721
20.9895
-10.5937
1.50421
20.0142
20.6008
20.6613
21.0424
2.26784
1.8506
1.82936
1.87503
17.868
17.8042
2.22108
-3.42748
22.0698
22.0074
-6.97781
-3.17101
21.8701
8.00276
0.375397
22.282
21.8507
22.0157
22.0474
19.5379
19.22
20.1556
1.36357
1.45912
1.05605
20.6209
21.2023
21.3339
21.3277
21.2479
20.0494
19.0769
6.1372
0.506175
2.49044
2.3463
2.75463
2.63876
24.9845
22.867
-6.27105
-5.59706
0.542408
0.669869
0.512769
3.09238
2.48381
-7.64007
-10.1363
-10.572
-10.6379
11.6944
4.04765
4.01434
3.57997
-5.91492
-6.54833
-6.35927
-5.58402
16.3785
17.5515
18.5886
17.0508
-6.92725
-7.41056
-6.83548
17.8836
18.1986
-4.18885
-4.31463
17.7307
18.8832
16.2352
17.5431
16.6431
16.3539
18.9431
3.01037
3.22505
2.01487
2.29284
17.6167
17.4142
22.1137
22.2861
22.4949
19.6178
-0.151345
17.5025
17.0581
17.9827
-3.79976
20.6711
20.5236
21.4101
19.6721
19.1085
18.8563
18.4086
20.7173
20.3031
20.448
19.8758
-3.92126
18.2298
19.1915
19.1514
19.434
-4.21597
-4.56344
18.9696
18.6604
18.1757
18.4129
3.8534
3.47568
4.03624
-6.89808
-5.866
-7.40254
-6.83138
-0.263741
-1.50765
14.3232
14.1601
1.14424
1.19215
1.17789
1.01593
-1.25254
25.2224
6.62458
5.90912
0.552337
-7.02683
-6.58984
-7.15092
-6.64557
16.2531
15.3172
15.6449
14.515
1.5648
1.43177
1.5736
0.926158
0.969146
1.13043
0.709327
0.923852
0.849364
3.62124
3.41
3.4892
3.89279
-6.305
-5.75238
-6.33548
-6.45496
3.05795
2.74037
2.91784
22.0611
22.2779
22.1187
21.5698
4.1571
4.93222
4.38557
23.8894
25.2582
1.37627
24.9008
10.8036
0.843319
0.815393
23.9776
23.825
0.85488
0.882365
0.886664
1.33652
-7.61718
0.910513
-0.497042
24.177
24.2141
2.33372
19.1876
0.0169221
0.991461
-4.14376
-5.76242
-1.80506
-2.01577
22.9388
-3.53616
-4.00294
-0.264381
1.97911
-5.09209
-0.029711
0.149279
0.16535
0.296708
-1.81685
3.11883
3.17983
-2.72154
-2.6199
-2.7946
-0.142495
-0.412229
1.21485
1.25871
1.0711
1.01715
4.64934
22.5935
2.26683
2.24467
-0.00302276
1.13591
-0.438837
0.943019
1.01629
1.05109
25.1635
1.4091
1.34948
-7.87496
-8.58895
-7.65824
-2.33672
-6.40007
-4.86883
-0.410586
-0.35961
-0.384777
14.5991
13.7878
-2.97359
-2.61605
-2.3421
-1.68416
7.24318
-4.62667
-0.993716
-0.8259
-2.37263
-2.66743
25.0188
0.259859
-1.11856
14.4184
-0.156231
0.165622
25.6802
18.7192
19.3529
2.18
1.09384
1.16373
-6.64671
2.43231
6.33609
7.09796
22.3034
22.1173
3.96011
4.46773
4.27268
1.02642
0.973046
22.9537
1.27193
3.51987
3.73748
1.8681
1.67528
1.53342
2.41204
5.65186
5.03482
6.20197
5.55997
2.80521
0.460894
1.64917
-0.778647
1.6074
0.272565
0.798705
0.924162
-4.99119
-6.14253
-1.51261
-0.125743
-0.505376
-1.00323
9.30968
10.5462
19.4402
19.8575
20.2576
21.4668
0.827467
3.03172
2.82592
0.651705
1.2932
17.3904
16.6946
-3.6531
-3.91268
-3.19227
2.01227
0.91705
3.13881
3.49459
6.90167
3.73955
4.37756
-9.59763
-9.87706
1.11822
1.28693
1.09424
1.32152
-2.56651
12.7564
12.0138
11.1975
1.61494
1.71437
1.82536
1.79002
1.92901
0.973025
2.88409
3.05935
-3.384
-3.24225
-2.87895
-2.04496
-2.2849
-2.55606
-1.31957
0.588499
-1.92241
12.9143
12.0013
10.8541
22.8233
22.7165
4.93487
5.38643
19.7836
20.0211
-0.635132
-1.12635
-0.367903
19.0057
19.3078
8.04096
7.39598
22.8402
16.1903
-8.29978
7.16461
3.43168
5.40266
23.2515
4.35369
-24.7326
-8.62693
-19.1631
-1.53276
22.7617
-6.23133
-12.4015
19.6099
-23.2421
-5.86705
-6.025
4.53274
4.67338
3.70023
-0.780193
-1.34633
6.94961
-4.57907
-4.98037
-9.10166
5.30315
4.74473
-4.8521
-4.10978
-3.73355
-1.31903
0.120999
-0.136976
18.677
3.73352
4.44918
-3.54485
24.3969
16.9357
16.6206
23.4256
-16.0664
4.20985
-15.4085
-11.9587
23.7324
0.685341
-0.523533
2.87808
20.7824
-12.1268
-11.7641
4.54233
-3.50794
-2.52818
-3.36139
-2.10067
-4.39774
2.92698
13.2954
-12.4836
3.85286
18.2974
18.4547
1.84732
1.74872
-10.6541
-2.15688
20.0063
-7.73941
-9.34477
-1.19518
-0.146808
3.75169
-35.1715
-3.23365
-1.02262
2.60699
16.9913
17.0562
5.97787
-6.52888
-6.75524
-7.5141
-35.3539
0.304269
-10.8544
-10.5619
22.5441
0.98682
0.481943
22.8351
22.6514
-13.1029
-13.1558
0.554367
-12.0101
18.9339
-0.472751
-1.0253
2.25361
-7.53838
14.4632
-0.289012
-0.540043
-9.73372
-4.06857
-2.89116
-8.33045
25.2886
15.6888
-11.9346
5.96015
5.58916
16.4049
16.5763
-4.57442
-4.24854
-14.11
-25.7139
-6.12849
-10.333
-10.3511
19.2471
-3.40874
-13.3268
22.971
-18.7243
1.99078
-5.89342
-6.08902
3.19956
3.12705
-0.0906166
15.8956
4.02783
-25.7328
-12.2407
-12.4116
2.777
-10.3184
-1.97604
-0.738425
-13.9213
-14.13
6.35808
16.9202
21.5794
-3.24437
2.12112
2.21655
16.0825
16.0102
-2.27265
7.55494
-1.67595
-1.55985
-6.33609
3.42462
0.574608
0.145129
7.99973
9.13925
18.7309
22.518
22.7372
22.7019
-3.42754
-1.89492
-9.89303
17.6391
17.8262
13.1586
0.918627
15.3269
23.0972
14.7908
14.3143
-7.64056
2.1456
-1.06428
15.8027
15.7686
-4.69398
1.17923
-12.2145
4.37412
-12.6214
5.03193
4.87059
19.5986
1.24716
-16.9719
0.90378
-11.7838
-0.909453
-0.0161195
15.8044
15.4623
15.2931
4.69752
4.2566
2.17442
-9.43253
-9.52093
16.405
1.91761
1.54105
1.45452
0.0381538
-0.308365
3.20332
-9.48786
-10.3448
-25.0877
-3.72259
-3.16274
-2.99463
7.82426
7.612
5.59041
5.92038
-3.96671
-4.38184
-14.142
3.7861
-2.25322
-2.54368
-11.6299
6.81955
-22.8881
15.5825
-11.985
-11.7423
-20.7441
4.09935
-12.3442
1.67509
1.97638
-12.6302
-10.8877
0.244602
16.2857
-17.4659
4.56103
4.95565
-12.4259
14.8266
-10.8636
24.6202
2.75885
3.21955
3.9465
2.23559
2.80675
0.515892
0.724973
1.62085
3.4392
-17.7648
-16.5446
6.02016
2.41994
1.65216
-0.243566
-1.43948
-1.76132
1.74747
-8.48153
-9.58105
4.91617
4.6198
-4.48361
-13.2019
-13.4779
2.59838
2.88006
24.363
-7.14779
-6.70357
-2.07149
21.944
-2.23132
-1.92326
-6.08769
-5.84363
1.36061
1.6221
2.46054
17.2735
17.7545
-11.5729
-5.1556
1.67865
-11.6676
-11.4954
-11.7716
18.6946
18.4381
-11.2227
2.31512
-19.1792
-19.5448
6.08748
5.59763
-12.2853
-12.0809
-12.2345
15.7674
15.9904
-5.9178
-12.4036
-3.2371
4.96337
-8.12735
-8.28938
18.5819
-12.0001
-8.24415
-9.9954
4.84389
23.2589
0.333044
-0.265944
2.89107
2.32896
-15.4445
-12.1621
-11.6028
-10.1217
-9.29963
2.46264
2.43894
2.32925
-12.8642
-12.0916
18.1404
-4.90162
-4.59217
1.68955
-8.72047
-8.4268
-4.26108
-3.70741
2.1678
15.8098
15.7567
-12.2291
-11.8645
3.94796
4.25877
3.80763
4.7103
5.40795
15.8856
6.41975
22.6282
-9.28716
-9.70054
-9.10247
-9.01858
-7.73412
-8.81128
-12.3981
-12.4394
-1.16042
-1.19562
-1.37291
-0.624722
-2.02397
-6.11058
-6.49582
22.9311
18.425
-12.082
0.522151
0.476825
0.071602
12.5518
-0.248226
2.11722
2.39204
0.574051
0.724316
1.02196
2.08983
2.85601
16.5347
16.1827
16.3126
16.667
-2.54184
-3.09267
18.1728
3.07871
3.04159
3.27419
-0.174947
2.41071
17.9171
-5.16155
-4.60756
17.3703
17.7546
16.962
0.775275
-2.70995
-2.48724
-0.334183
1.65066
2.03695
-0.958278
3.24706
16.2459
16.3043
16.0912
-7.85837
-8.45836
-7.6074
0.9389
16.2201
4.43284
3.7631
-0.544344
22.4269
7.42655
7.27144
7.42313
-10.2675
18.956
-12.2635
16.9037
17.0854
24.1332
25.6307
2.4655
-4.59462
2.6383
-5.18895
-4.81238
-0.0216406
15.3186
0.35086
4.51451
-20.2863
-0.00677478
0.336656
0.540356
17.3112
2.43145
2.43266
2.49925
3.89288
4.66995
23.7653
17.0216
17.2008
-0.569387
-0.327273
0.0271136
21.1345
22.3519
3.16349
17.6732
17.8583
17.7345
17.1785
16.9328
17.1435
1.98646
18.047
18.1543
-12.728
24.1128
3.58738
3.91719
0.0719281
0.125002
4.96005
0.22202
-0.169555
-0.662925
2.32827
2.23922
-9.90717
1.27214
1.55836
1.6252
-0.102941
0.263656
7.98188
2.35005
6.45446
-2.40255
20.7704
22.661
-1.34941
24.3379
-11.5142
3.99819
15.9767
-5.90625
17.2856
17.5647
14.5536
14.5136
1.55843
0.859033
-1.98396
-1.86107
-2.04919
-0.437965
-0.0522431
-0.298457
6.53625
6.32436
21.1681
21.7739
24.5874
-1.5537
-6.75582
2.83567
3.0462
3.00587
3.44481
3.46253
15.9346
15.7737
1.43159
1.38501
-1.2849
0.0643353
-0.120148
-0.545825
17.3797
0.361437
1.43936
1.75167
2.34157
1.81298
-13.5969
-13.959
-13.4257
24.6357
17.2527
16.6483
17.432
17.8736
5.8693
6.12199
20.7908
1.93358
2.14934
5.91419
-10.2724
-10.2266
-9.28817
16.3185
16.3049
16.1493
-10.2961
-10.4849
0.398561
-12.3393
19.0749
19.0119
13.5119
13.3662
2.49515
2.67667
2.31604
2.16508
4.73659
4.55171
14.4339
-10.5126
-11.1226
-11.5705
3.17556
2.80699
25.6466
18.0843
17.996
-4.90352
-5.17592
24.967
21.7228
22.1603
22.8229
22.861
-4.0085
-4.4739
-14.3102
-12.8631
-16.2494
-12.1113
22.5375
-8.43062
-8.66318
-8.74626
-10.4608
-10.3244
-10.014
-9.15917
25.0943
25.2062
22.3675
22.2166
24.8223
21.6895
17.9226
17.6233
20.4796
-7.71432
23.7012
1.92839
1.72964
1.91936
3.01489
3.00107
2.54159
1.19579
1.3778
1.68227
2.19605
5.30924
-10.2643
-10.2825
-9.7381
16.1021
15.6427
16.0674
1.11911
1.29334
0.935436
2.07691
2.23571
2.47206
7.851
3.07001
3.37167
3.22028
-1.08039
-0.74073
-12.5778
2.9388
2.35724
2.5139
25.151
24.962
2.39338
2.41504
2.71359
3.01412
-11.403
1.45206
1.37997
0.689272
1.67319
2.08913
2.16607
1.98498
-2.67638
-2.47686
-2.8264
-2.17978
-9.91028
-12.3465
-12.2398
-12.2364
-12.2129
18.277
17.5038
0.374905
1.09906
4.16419
3.27751
-17.7437
7.9465
-11.822
-12.6973
-5.73278
25.4246
-12.0555
-12.3896
4.07049
4.63751
3.27566
0.740333
0.909459
22.4883
-7.65489
-7.66061
-6.78421
-9.01538
-9.43374
-9.18933
-11.0788
-11.1874
-11.1881
-5.63288
-5.93786
17.3033
16.9562
-0.0376119
-0.157103
0.504106
25.3635
20.3908
23.2738
13.6333
-11.7388
-11.7263
-10.7247
-11.5407
-13.8009
17.0543
16.8231
16.6001
-6.99453
-6.23028
-6.66002
-5.97868
-11.8883
-11.6222
-11.919
-11.9641
22.4755
22.8165
22.389
22.3655
-9.09186
-8.29554
-8.95256
-8.06555
13.4273
-6.18495
2.39923
2.28269
2.02241
2.34845
-2.42298
-2.00604
-2.17729
-11.6243
-11.0069
-10.4684
-11.0532
0.391497
0.556335
0.943344
2.2286
2.32871
2.06953
1.93976
1.60656
16.9491
17.3626
16.8831
16.4897
2.39536
2.25556
2.23444
2.2818
-10.0962
-10.4316
-10.6039
-4.60644
-5.36923
3.31862
3.65974
3.05224
-13.0138
-13.5922
-1.3316
-1.18129
1.27682
1.76187
0.763484
1.33105
0.595528
0.0180082
0.55188
-5.52022
-5.65802
-7.30324
-7.74637
-7.30381
-7.31572
15.4096
15.6502
-1.33717
17.1785
17.1752
19.0811
0.819511
1.1377
1.48236
1.21824
17.1564
-3.57724
-2.76405
-2.68921
-2.07739
2.64313
2.30451
15.9164
16.137
15.767
15.9794
-4.06736
-3.67736
-4.50024
-7.62413
-7.94613
-8.11918
17.1984
16.9519
17.7436
17.5756
-8.02786
4.81429
15.3499
-8.09859
-8.40202
-7.12277
-8.08452
-23.7368
5.81912
-23.2937
-22.8697
3.74982
4.04631
3.2999
3.50625
-2.28657
17.0203
17.2949
3.55376
3.35218
3.77705
0.0530334
-0.263159
-12.3447
-12.3577
-12.334
-9.48221
-9.25468
-9.43491
-8.89108
18.7376
5.64338
5.55689
-6.06382
-6.28702
16.3131
16.4886
16.3554
19.208
-5.24217
4.55838
-0.714602
-0.99157
-0.804604
0.884803
-10.0897
-10.5899
-9.61033
1.51808
1.63497
1.29774
17.7338
17.8217
2.75152
2.37453
-8.31453
-7.97461
-8.72285
5.02245
4.73772
5.14253
-7.33855
-7.59094
-7.27433
-7.64895
-7.86017
17.7875
17.2564
17.5623
-4.50866
15.0869
14.8416
-2.29664
-2.43349
-1.31858
2.00998
1.37175
-12.5633
-12.5383
3.91762
3.61845
18.4669
18.0241
4.35108
4.10531
3.01567
2.60406
1.58346
1.60885
1.03529
1.03502
1.48998
1.49184
17.7037
17.4818
0.0710667
-0.473182
-0.638554
-0.280478
-0.990186
17.7628
17.5962
17.4773
22.5554
22.6721
22.3077
22.6794
16.5906
17.4493
17.4674
17.304
-0.00891703
-0.483803
18.221
18.3322
2.97617
3.00737
3.43629
3.68607
3.52392
-12.4877
-12.501
-12.3455
-12.2189
19.6557
2.69944
2.51568
18.8723
18.7245
18.4296
18.7967
-0.678988
-0.627153
-1.09919
-6.33467
-6.5289
-6.05906
1.68705
2.17475
1.19923
17.2614
17.3417
17.5306
17.6549
-4.5222
-4.21007
-3.89699
14.2524
-13.1847
-12.8843
-12.3954
0.232551
-8.23563
-9.16448
-8.71443
-8.83594
-0.482283
-0.751297
0.0778559
-0.337355
2.62913
-11.176
-11.1212
-10.6187
-10.9872
2.48793
2.42244
2.18111
2.02263
1.82243
1.82546
2.11758
1.84169
1.51867
23.1871
17.2814
17.3819
-12.4786
-12.5361
23.7974
-6.60636
0.467529
-0.0212914
-1.06058
-0.747781
-1.81554
-2.3301
-1.66325
-11.8731
-11.4025
-27.5675
-26.6937
15.1873
15.5
15.7197
15.8884
4.5035
2.73713
2.47536
2.85867
-26.2648
15.9259
16.0595
15.3608
15.5013
-9.47823
-9.14514
-8.85137
-8.20387
0.944217
0.995655
0.895386
4.53028
-9.77325
-9.5091
-9.83786
-9.84328
-14.3255
-13.7227
-12.3807
4.43826
4.22555
5.21762
17.6781
17.2819
17.3113
17.2735
8.82824
8.81724
-3.22227
-2.27407
-1.81559
-1.89102
18.2694
18.0535
17.8897
-9.04828
-16.2063
-17.6077
18.5622
18.4147
4.65563
4.6326
4.85494
2.39586
2.37085
2.55627
-12.6054
-12.8017
-12.6083
15.5235
15.2246
15.4026
15.8661
22.5011
17.1342
17.4881
16.9278
17.1546
-5.93522
-10.9225
-5.40526
-5.77698
-1.75862
-1.58119
-0.673705
-0.902378
3.10045
2.42586
2.2988
2.25405
2.72966
-1.16393
-0.0767513
-0.819466
19.1741
3.3704
3.22344
3.30785
-1.88175
-1.11635
-9.80575
-9.92664
-9.85697
-11.1409
-10.5275
-11.0915
5.74523
23.1002
4.36979
21.7388
21.8264
2.29997
1.79693
2.38421
-6.19408
-6.15043
-6.44493
0.383508
-11.7349
-12.0725
-11.9954
18.1857
18.4771
1.58926
1.26141
1.04467
1.33923
4.2413
4.27987
21.7383
21.7991
1.56218
1.24504
1.8311
1.67439
2.30623
2.61512
18.1395
4.34092
4.5157
4.28886
-1.2402
-0.758669
-1.18427
-21.6706
-8.33309
-8.88939
-9.13823
-8.69634
18.075
17.6276
17.4809
17.7831
-6.03277
-7.01799
-6.47259
-10.943
-12.3508
-15.6585
-12.2768
-19.0906
0.163708
0.00903698
-1.1823
-0.924976
-6.97666
-7.53552
-6.98382
-6.19325
3.70571
3.50261
2.83061
3.16966
19.0675
15.0274
14.738
15.0455
-7.32917
-6.90643
-7.06219
-7.317
-14.3324
-12.8908
-10.0775
-9.96058
-9.17188
-5.71681
-5.3842
-5.61493
-4.73879
15.1856
15.3997
0.595366
0.55077
-10.043
-10.4466
-10.4119
-10.4624
0.825496
-6.69784
-6.30064
-6.73203
-6.42492
2.09865
2.28684
2.23879
22.8284
17.7131
-11.9116
-11.3591
-11.4529
-10.7629
1.50289
1.73988
-11.3053
-11.36
3.59784
19.0407
1.97799
1.70841
0.672594
-5.94909
5.25834
4.98808
5.10677
-7.26598
-6.85142
18.4618
-9.70792
-10.8471
-10.01
-12.8856
0.000950455
0.398155
0.100467
21.5379
21.4875
25.7346
-4.87804
18.3598
2.37397
2.47997
1.95664
2.28002
-0.639465
-0.142242
0.605401
0.232419
2.36017
2.38668
2.47612
2.45818
-10.8703
-10.2473
-9.69879
-10.5369
1.9837
1.89738
3.01714
2.05357
-7.72921
-7.22389
-8.29895
-13.7527
23.2652
-7.89939
-11.7718
-11.2789
1.0472
1.02748
20.4391
-15.1932
2.39868
2.82843
2.54112
18.954
-0.0775327
-0.462571
0.0659582
0.680441
3.59388
0.94056
0.473689
1.402
1.68314
21.704
21.8412
21.1374
21.4393
1.96555
2.07066
2.21218
1.69447
-0.354937
-0.679048
-1.00251
-0.576804
3.96048
4.1715
4.28762
3.92744
18.1086
18.0528
17.4042
17.7274
17.6528
17.798
-8.85518
-8.05953
-9.16551
-9.47773
0.0499921
-0.077907
-0.381687
6.20285
-12.5351
-12.644
-12.3837
-11.354
-11.2617
-10.043
-11.5209
-12.3812
-12.678
-13.0711
-15.7726
2.03491
1.53709
25.7468
17.7451
17.4476
17.3164
17.0946
-14.2266
-13.2028
-12.7543
0.54927
-5.73409
-6.09836
-5.55189
-11.9509
-12.0938
2.03642
-11.6168
-11.5098
-3.37795
-3.95162
-4.3006
-9.4065
-8.42684
-8.11089
-9.04933
-12.5754
-12.5724
-12.4143
7.72693
6.76626
-8.95303
-8.07762
-8.60788
25.7591
-8.13193
-7.83772
1.06816
1.16488
0.186175
1.28298
1.12469
1.35408
-13.4181
-12.16
21.0335
21.2513
0.593632
1.07969
17.3993
17.5339
17.5047
17.7626
-4.93563
-11.4214
-11.4219
4.84031
4.97279
4.29975
4.87061
0.700859
0.684822
1.08295
0.828287
0.465476
0.55404
0.979201
0.767646
-0.622489
-0.536824
-0.664714
-12.8791
-12.598
-11.8233
-12.4046
-11.0038
-11.1798
12.7589
-8.70121
-8.708
-8.78133
4.68425
18.2406
18.4497
18.3943
-0.982084
-1.10048
0.133223
0.295632
0.268582
0.700897
-10.7363
-10.111
1.68276
1.90913
1.31837
1.67002
1.43416
1.87282
1.92724
2.20878
17.5732
17.5508
18.0037
17.8741
-12.4752
-12.4355
-12.4484
18.7328
18.4976
18.1118
18.4069
4.67098
4.77487
4.43919
18.6195
2.04888
1.6121
1.64151
1.57124
-18.3519
-16.453
-20.263
24.7561
-3.8923
24.9565
25.1485
25.2157
23.1495
-14.9396
22.4589
23.2022
23.2587
22.7665
25.7855
20.4323
25.5395
25.5703
24.7558
24.7987
-12.3834
21.6052
21.5611
0.467137
24.0488
-6.12986
21.2145
23.3299
23.3382
-7.21773
23.4321
0.842505
24.5566
23.0342
22.9719
21.4512
-1.21947
-0.0683392
20.7139
20.579
-16.6893
24.9338
1.21584
2.03361
-1.37315
5.75782
6.69957
-7.47714
25.4584
22.094
25.6894
25.6393
25.5913
-15.0259
-15.553
25.2265
-15.6076
23.4429
23.3286
22.7145
23.7456
-4.44025
-16.6192
0.427582
0.549738
25.8048
-19.5255
-20.0414
21.3083
-26.8204
20.3476
20.3414
20.3276
2.48107
2.3699
25.2125
-0.799585
1.29947
1.50286
-19.6191
22.4535
22.4321
25.3987
4.19906
23.931
21.6585
25.4777
21.1624
22.9251
2.59123
23.3101
19.1366
19.1732
0.580622
6.60856
22.2058
17.5447
23.0609
25.0037
2.13622
19.7873
25.229
23.1253
23.1734
25.0847
24.3085
24.2447
23.6229
24.0154
23.9265
20.821
20.6954
23.165
20.2037
23.8524
19.426
0.766151
24.2926
11.1863
20.2997
-1.22844
23.5198
23.5004
23.6615
23.7227
5.97722
20.6072
20.4962
-27.6545
25.5841
25.5988
23.3514
-0.497806
-0.505638
-22.12
23.7627
-28.5017
-27.5608
23.7115
17.2178
17.4236
-1.35533
18.3119
0.129748
0.0718183
18.093
21.9648
23.1438
-0.781209
-1.24382
23.2516
22.2571
3.67499
20.4128
24.8885
21.7265
19.0308
21.9764
20.7718
-10.81
-11.0787
-10.7081
25.2743
22.7328
-12.7268
-12.8335
3.91023
3.77241
-14.1857
-11.7201
-11.2521
0.536069
24.6959
24.3518
-5.98949
1.32067
22.4819
22.3566
22.6427
25.0602
24.9852
22.2854
22.1196
23.9047
25.0933
22.0903
21.9104
24.3632
24.2884
23.6204
23.6139
4.62849
21.7847
21.5431
23.3053
24.2786
23.8231
21.728
25.4776
18.8785
19.0547
23.2938
23.2198
22.8599
24.358
20.9884
20.8518
1.62228
21.428
-0.0803746
-0.201697
-0.193013
-13.6084
-2.86894
24.0832
-17.6372
22.9597
2.15916
19.2051
25.3428
22.6866
22.5264
22.5953
24.6783
23.8257
0.988253
10.3208
9.52892
21.5794
21.7348
-1.2221
0.880931
-3.27698
-3.06927
23.5361
21.6675
0.278046
18.7489
19.1137
24.1209
23.1886
-22.8581
7.79485
7.17037
22.14
-4.98961
22.5804
22.3539
22.3941
25.3899
-6.17128
-7.08695
-6.90237
14.4459
23.2702
-0.721072
-0.998152
3.73523
0.158816
-21.2252
19.0883
19.5382
0.835119
0.708903
0.546923
20.0524
1.70258
25.5571
25.5024
24.8206
22.8984
-24.0836
22.7615
22.797
22.8647
22.9372
22.0082
23.549
23.626
-2.01805
-6.64066
21.5726
8.56017
3.19249
3.20934
19.2413
-0.501539
-0.644703
-3.23847
-3.64646
25.2128
-26.4845
-1.15532
-1.61099
22.5504
22.6806
20.1953
20.1216
0.271484
0.0723928
-0.501235
-0.810252
22.6272
-8.52314
-8.23296
1.03723
23.0479
23.0021
7.50629
23.6508
23.2078
21.8219
24.3168
19.7285
22.8081
-1.9671
22.0563
21.8372
-18.7402
4.53034
19.7553
-18.8562
7.69539
8.32226
7.59315
-18.7241
1.72912
4.61562
-4.83307
19.6443
25.1625
23.0824
22.8223
22.6904
-2.13774
23.0875
23.1209
20.0512
-5.07371
-6.66126
-5.37363
20.0733
19.0801
18.9637
-0.264435
-0.00290353
-14.1923
21.5697
21.4934
21.8777
21.2918
-0.937562
-1.248
3.41177
3.09661
-1.53112
-1.31945
0.706165
25.0158
25.0755
2.03563
24.2653
-6.53671
-1.31061
-1.17619
-0.896005
-11.7406
-11.3769
-11.5848
0.0796781
-4.09808
-4.65825
1.74919
0.927126
1.05768
0.251138
2.27125
-4.31856
-4.2719
24.3011
24.271
0.466747
20.8751
-11.1437
-11.4029
-9.96777
-2.37971
21.9155
18.5375
21.7048
9.48706
24.8393
19.9791
19.9686
0.90098
0.905924
1.07131
20.5435
20.4903
24.7035
0.311954
21.4562
9.53089
20.487
20.4559
19.9665
0.489148
-1.39114
-9.43799
-9.65853
-4.51587
-5.03496
23.6253
23.5551
1.37683
21.1771
22.8171
24.5871
-0.359185
-0.79416
0.731043
-5.1499
0.639462
1.59443
1.45973
24.3339
20.1819
2.52145
2.41996
1.86545
2.2461
-4.10875
-3.1497
3.26241
3.27881
7.95672
8.73857
25.4567
0.697894
0.351139
-1.86933
0.199779
0.262301
0.264842
-0.838598
-0.460212
0.673272
0.586781
0.354349
-0.843307
19.9177
19.807
19.1261
-6.76204
-6.60814
-7.37968
-0.956672
-1.10697
-6.46531
-10.1754
-10.4815
-1.8793
-1.47902
-3.88069
-4.04673
18.9825
19.5426
24.4474
23.6591
3.89261
-6.67283
-6.86823
-6.836
-0.513484
23.5535
23.4461
-3.06624
-2.5656
21.5633
24.2235
22.1314
22.035
24.9997
18.2811
18.4754
18.3032
0.929471
0.818849
21.3777
24.6802
24.6356
24.9055
24.8779
7.37575
8.62777
-7.67438
-6.66825
-10.2257
1.74491
-9.02423
-8.52341
-4.89843
-4.93448
-5.26097
-5.21399
-5.26226
-7.95564
-8.3942
21.2356
21.1476
0.563753
0.649008
-0.775894
-6.08856
19.8163
24.6047
19.8502
24.6059
21.9223
22.0693
21.9997
25.0535
-5.67502
-3.18588
-3.4415
-3.58882
-3.64553
-2.83196
-2.68375
-13.2949
-13.7023
19.4636
6.82605
21.747
21.4037
7.23394
20.527
-12.4129
-0.0422795
23.9532
23.7503
-0.678934
-0.707658
19.7438
-7.39645
-7.31358
25.0271
-10.3236
-9.59546
-5.22481
18.0261
18.0236
-2.35154
22.558
24.1016
18.0853
18.1048
19.9402
19.8442
19.6005
0.652986
0.734933
0.617914
-6.78155
-1.03501
-0.888297
1.38438
0.970527
2.60444
2.25749
2.3861
19.1028
18.9069
18.9428
-3.78439
-0.853119
24.3474
0.901882
0.90708
0.944055
1.68173
-11.4596
18.45
19.0942
18.7529
19.4266
-3.83043
17.5061
17.4048
21.2872
20.8902
18.0292
4.84657
15.481
14.9769
14.497
23.3882
23.2815
-3.34815
-3.62014
-1.79702
-1.24039
2.6072
-5.87515
2.12421
23.1356
25.2356
25.1774
1.86456
22.5372
-0.402065
-16.0383
18.479
18.2874
18.2302
19.8656
20.0236
4.89271
-6.53434
-6.37054
-6.40044
-0.225254
23.1567
23.9183
23.494
-0.246648
0.721096
2.99279
3.22772
17.6043
-0.690653
-1.24915
24.0372
24.0378
22.3732
22.4717
22.2398
-0.605214
23.9019
23.8852
0.894742
0.147712
17.2421
22.2847
22.233
19.6893
0.956654
2.37694
2.01019
19.266
2.67092
17.8402
22.6237
18.5568
18.7537
22.2608
-0.651015
22.418
-3.47893
25.119
19.6668
19.7143
25.3595
25.3945
25.4077
25.0596
22.3111
1.73158
22.7927
22.9319
-10.4128
19.0014
1.70141
0.859514
1.13191
1.03684
1.17833
-1.48999
2.04773
1.95257
-0.496341
-0.876967
-1.12728
19.7061
19.6425
-2.10939
-2.34523
-6.89148
-7.0954
-7.17547
-1.98649
-1.86785
1.54586
1.60298
-4.30503
9.4839
10.4135
17.1072
16.9247
1.92337
2.12951
-6.22574
0.664958
0.111318
0.808124
0.783774
22.0021
5.28555
17.6927
17.2337
-3.90053
19.5302
-17.9129
24.9586
0.278251
-0.422622
2.06274
2.27753
-5.56567
-5.65736
-5.36584
23.6092
15.0568
15.7952
16.3749
1.65113
1.42264
1.26507
23.0137
18.3873
18.0657
17.9792
17.9251
2.92818
2.40636
2.39142
-7.85962
18.8022
18.7647
18.8671
17.6045
17.5455
25.3521
1.29361
1.57455
1.31489
-8.7072
-8.56641
-9.46822
-8.65311
2.75037
2.92162
17.9623
17.739
2.9785
3.05
18.6399
18.4302
18.4795
-3.4355
-3.06216
0.771634
0.670264
18.7365
18.8431
0.359478
-9.79919
-10.2343
1.83636
1.62781
1.99145
-9.06994
-9.3748
0.753787
0.704336
18.2065
18.4474
18.1794
-8.53542
-8.49671
0.226899
0.459475
0.111056
-4.53288
-4.21905
-11.4481
-11.6987
22.0425
1.66021
1.52929
-13.4769
4.71001
5.04128
20.2936
20.8282
20.3686
18.5001
18.6336
23.0281
1.50377
0.483516
0.229676
0.821461
0.980174
21.1487
3.20707
-0.144493
-18.3187
11.2836
11.7801
-7.83557
-7.64876
24.6618
-1.73123
5.45647
5.41668
3.92137
-9.67653
16.7545
16.3111
-10.3168
20.2085
19.8615
21.8958
18.0031
18.2521
-1.87998
-6.21525
-6.30537
3.25514
17.4115
17.463
17.5145
19.3629
19.8783
20.0309
21.5947
21.6942
-4.38931
21.9561
21.8474
17.3274
17.9319
17.927
24.8426
24.8999
1.78546
1.73805
1.63451
0.884374
0.30171
21.072
21.5406
21.2316
25.3478
-11.929
2.18474
2.19316
2.65311
2.76411
20.5812
3.85776
3.26393
3.40498
-6.21939
-3.39551
-2.2697
-6.56797
-6.6674
-0.0447446
0.0545478
-4.64915
-4.05489
-11.2211
-10.8915
-11.2274
1.04007
16.7537
17.1381
-0.419899
-0.555748
-0.0952688
18.5023
18.3092
18.203
-1.27805
-1.17668
-1.41879
-11.306
-24.2429
4.87257
5.01848
-11.1092
-10.8217
1.13752
1.48978
18.1234
-10.7202
-10.6766
2.70599
2.59196
0.15242
0.191424
6.12147
6.69903
7.672
19.3215
19.2892
-14.7886
18.1223
18.2502
1.49786
0.748351
1.15209
1.29732
0.707194
-4.46364
-2.84896
-3.59417
7.31252
8.09735
9.47881
8.96599
19.3468
19.5939
-1.36159
-1.4788
1.19941
1.40198
23.0108
25.2982
18.0871
18.0143
20.3352
-5.07371
-4.85516
-4.81969
-0.770941
24.5321
16.8113
16.9543
3.05348
2.88612
20.9765
20.982
-10.7803
-10.81
1.60788
0.984696
0.736875
19.5708
19.7014
4.11998
4.52105
18.8576
18.9601
22.6261
22.4666
-22.6154
0.210336
2.40627
2.3139
-3.11051
-5.15126
22.9625
-16.4086
-3.51728
-9.93091
-10.2417
-3.23115
-2.52235
-5.78884
-5.74107
-0.574016
-0.499789
-0.946233
2.61476
2.84168
0.218357
0.722546
0.50983
23.5029
22.6794
25.4218
22.0282
22.1163
21.5872
22.0503
1.35531
1.86712
1.41644
-4.63683
-4.62196
2.59157
0.635025
0.492535
0.546618
-3.82453
-3.76448
13.8743
21.6902
8.07164
17.6123
17.3014
-12.9661
7.92124
-0.993377
8.79935
-25.4638
11.6093
-11.9719
-13.8493
-11.6015
4.87782
5.36261
8.13097
6.20584
-11.8111
-9.65891
-8.58992
7.71391
8.69176
8.92006
11.8388
13.5931
-6.04386
-7.63526
7.04535
4.5118
8.58745
3.13986
-11.6742
-11.7076
10.7369
11.713
3.62657
-18.3597
-22.6376
-10.0649
12.1045
-8.23727
3.18894
10.8409
10.9357
6.2165
6.26605
-7.55809
-8.04059
-9.2811
-12.2083
-12.0497
1.07355
-1.33548
12.2215
12.4456
3.15894
2.64185
13.7262
-10.4197
12.7701
11.0121
0.76905
-2.80507
12.0389
6.12727
10.6547
2.38681
13.8256
18.9834
5.63096
9.50202
7.29367
2.72343
9.5412
4.067
4.40164
7.21314
7.0894
-14.1134
-14.4202
1.6935
-4.36622
-20.1875
5.93827
-5.95485
-7.68943
14.0219
-0.0945553
11.9877
-0.589761
-1.57389
-12.7965
-15.0627
-9.25439
-10.5176
0.500177
-11.6471
-11.5711
5.33382
-1.85149
-2.47974
-1.30089
-0.265578
0.927174
15.8629
-9.23385
-2.93334
-2.03128
-17.8284
22.5392
-4.49226
-30.8547
-23.2696
-26.439
3.10952
-13.8167
-15.3222
11.488
10.4931
-8.84039
10.1973
-9.19931
-10.0785
0.599415
0.542698
0.26321
0.0463329
-11.6917
0.978336
3.88435
-4.8323
10.7293
-0.557517
-1.65057
-15.1276
15.861
7.29614
10.3907
7.12656
6.95242
-21.9531
-12.3094
9.98783
-18.9052
-6.46361
13.5742
13.8415
11.5253
12.4962
-15.3231
4.32649
1.98779
1.08796
10.2348
10.0088
8.71316
8.15146
8.81595
4.79717
11.4606
6.33868
-5.12624
-1.75153
-0.467095
-1.71583
-20.8521
15.4881
-4.21262
4.23496
4.49352
-11.4273
-13.5358
23.1583
-18.6081
-20.0613
16.8658
12.3742
-5.14353
2.31547
-5.75298
-6.26982
4.78119
11.9887
0.797858
-13.5746
2.25414
0.997161
2.32395
3.05252
15.7197
15.6822
-15.892
0.905491
-6.20583
-6.00456
2.15636
-6.77893
-11.8302
11.6063
-0.196242
0.661509
13.6202
13.5573
7.42484
7.88489
2.47251
2.89864
-0.625611
-1.14941
-1.57852
15.7079
-4.56001
16.3994
16.149
16.5518
-9.23056
-9.72536
-10.8892
6.39433
-7.3591
13.3752
-7.1272
-6.12441
-7.46357
4.96578
-27.0022
-7.29223
9.87952
10.8754
10.5226
13.4397
12.7429
12.216
9.86317
9.82765
-12.6384
6.73475
11.7736
11.1664
-7.31772
-28.6664
10.5841
-25.8054
-20.6688
3.19865
3.9614
5.15462
5.64129
-18.3165
2.36536
3.19295
3.93813
12.1264
11.298
1.42536
-2.27298
-2.88503
-0.670202
-0.0784851
-16.9397
-15.7527
2.10152
1.13581
12.5469
11.3445
10.9885
4.56934
5.27491
9.41482
8.33295
6.54921
9.09234
8.71598
7.93404
8.14243
8.38567
10.3082
2.93904
2.71348
2.65135
-4.7573
14.0537
7.80224
8.28617
12.0124
-6.17118
15.8193
0.0546509
0.22849
-13.5286
-2.82056
-2.11858
-2.87473
-12.0645
-11.8474
-0.0641304
3.45644
2.72183
-3.06352
-1.96661
16.7505
9.03991
2.52121
3.38577
-4.36107
-14.8608
7.81986
14.3117
14.4093
9.32984
9.03118
-0.639168
-1.11756
-1.73339
-1.04889
-0.462861
4.97597
13.104
12.2567
4.51162
16.1833
16.5515
16.5432
13.0897
13.2968
5.84131
12.6258
4.59225
5.08052
-2.85286
-1.83943
11.4941
10.5609
2.40827
3.15942
9.49492
10.2353
-7.53687