/*--------------------------------*- C++ -*----------------------------------*\
  =========                 |
  \\      /  F ield         | OpenFOAM: The Open Source CFD Toolbox
   \\    /   O peration     | Website:  https://openfoam.org
    \\  /    A nd           | Version:  6
     \\/     M anipulation  |
\*---------------------------------------------------------------------------*/
FoamFile
{
    version     2.0;
    format      ascii;
    class       surfaceScalarField;
    location    "1300";
    object      phi;
}
// * * * * * * * * * * * * * * * * * * * * * * * * * * * * * * * * * * * * * //

dimensions      [0 3 -1 0 0 0 0];

internalField   nonuniform List<scalar> 
44611
(
1.52208
-2.14443
0.622355
1.52208
1.44607
-1.44607
1.93937
-0.493303
-1.31921
-0.707791
2.027
-1.31921
-0.0922656
-2.17257
2.08788
-0.565807
1.29535
-1.29535
0.180619
1.85449
-2.17627
0.730205
2.37679
-0.340666
0.413086
-1.7323
-0.796128
-1.19949
0.796128
1.29176
-0.552835
-1.33726
0.552835
0.742516
-0.594742
-0.824371
0.824371
-1.17128
1.3519
-0.0105459
1.28969
-1.27914
-0.137224
-1.86172
1.99895
1.52314
-0.214779
-1.30836
1.21964
-1.21964
-1.10074
1.10074
-1.51196
1.51196
-1.19488
1.19488
1.5036
0.0195441
-1.92096
0.408998
-0.920254
-0.786358
1.70661
-1.62805
-1.26684
1.26684
0.124718
-1.42499
1.30027
-1.49434
1.49434
-1.28046
-0.219858
1.50032
-1.37116
1.37116
1.65552
-0.143559
-0.460632
1.51107
-1.05043
1.72094
-0.501299
1.32735
-0.214356
-1.11299
-0.70081
1.09728
-0.396471
1.1872
-1.4611
0.273904
-0.881208
0.881208
-1.14579
1.03975
0.106047
0.95307
-0.95307
1.19136
-1.32859
-2.28166
0.812232
-0.812232
1.01532
-1.2301
1.82755
-2.04233
-1.60743
-0.621944
-0.81911
-0.788324
-0.89906
0.89906
-1.04031
1.02977
1.92883
0.0932641
-1.46442
0.104314
-0.299459
1.21496
1.16183
1.7323
0.166106
0.532201
-1.21669
2.0358
-1.46442
-0.983238
-0.477866
1.2991
-1.29909
0.904855
-0.419781
-0.485074
1.33082
-1.14548
-0.185333
-0.801932
-0.648552
1.45048
0.000918648
-0.0799729
0.0790542
1.6777
-0.388008
-1.69635
-0.165367
-0.356513
0.908235
-0.551723
-0.0385049
0.0452914
-0.00678657
-0.136663
-0.611274
0.747937
-1.16006
0.459253
0.0114965
0.0602407
-0.0717372
-0.0327568
0.00740772
0.0253491
0.856371
0.213378
-1.06975
-0.00208148
0.00208148
1.47502
0.524507
0.240588
1.23443
0.798818
0.878881
-0.0231833
-0.00957355
1.23261
-0.504377
-0.728229
0.918171
0.314435
-1.07138
-0.624973
-0.26448
-0.806902
-0.981486
-0.476091
-0.909279
1.38537
0.00421546
-0.0427203
-0.00859132
0.0342707
-0.0256794
-0.728559
0.853277
-0.650032
-0.285452
0.935484
-1.17372
0.953862
0.000425461
-0.000425474
0.0914031
0.816832
0.996258
0.651466
0.863483
0.467333
1.15946
-0.295974
-0.0777116
0.637911
-0.5602
-0.364401
-0.479747
0.844148
0.410744
-0.745203
0.334459
1.14034
0.859662
-0.748074
0.756831
-0.0087574
-0.793017
1.06692
-0.889874
0.198804
0.69107
-0.888053
-1.11674
-0.844051
-1.43761
1.10853
0.336869
-1.4454
0.928111
-0.0717406
-0.199553
0.747058
-0.547505
-0.956766
-1.08556
-1.43286
-0.849852
-1.11848
-1.61095
0.761094
-0.868109
1.27711
-0.346125
0.807167
-0.461042
-0.981221
0.174319
-0.419227
-0.537094
0.956321
-1.31009
0.89086
-0.26464
0.829912
-0.565272
-0.832641
-0.0766379
0.753274
-0.617525
0.830903
-0.893542
0.594084
0.0494054
-0.0379089
0.0365148
-0.0451061
0.596203
-0.810559
0.849198
-0.683092
-1.49365
0.682076
-0.79306
0.110983
0.811575
-0.707262
0.901495
-0.0905726
-0.810922
-1.40066
0.000933851
-0.000933853
0.000933843
1.06852
-1.06852
1.07151
-1.07151
-1.15446
1.36176
-0.207303
0.624958
-1.07681
0.451854
-0.294878
1.36639
-0.899364
0.581753
0.317611
-0.929694
0.0303304
0.830897
-0.624188
-0.206709
0.0289646
0.337331
-1.13035
-1.25305
1.25305
-0.440173
1.35834
-0.1068
-0.464681
0.00660706
0.458073
-0.153343
-0.311337
-0.643047
0.489704
0.37207
1.02354
1.40242
0.61606
-0.0202758
0.974138
-0.0783049
0.931582
-1.24965
0.35987
-0.839617
-0.283176
-0.934315
0.33406
0.600256
-1.11946
0.185145
0.0897088
-0.800166
-0.963924
-0.31522
-1.45723
-0.727022
-0.232947
1.72729
1.06732
-1.20224
1.30828
-0.0632447
-0.681959
-1.0525
1.69652
-0.64402
0.0855744
-1.41147
1.35492
1.97728
-0.860066
0.860066
-1.64233
0.782265
-0.00557022
-0.00246918
0.0080394
-0.025566
0.0301308
-0.00456485
-0.00654352
0.0040386
0.00250492
0.0473205
-0.0572145
0.00989399
-0.00396711
-0.00424716
0.00821427
0.00417554
-0.00814265
-0.0540716
0.0084701
0.0456015
-0.594189
0.294661
0.299527
-0.0636159
0.049095
0.0145209
0.0149975
-0.0646143
0.0496167
-0.00420556
0.0083811
-0.00489524
-0.000497956
0.0053932
0.0183158
-0.000726245
-0.0175895
-0.00178838
-0.00890425
0.0106927
0.00610387
0.0046942
-0.0107981
-0.00210125
-0.00541983
0.00752108
0.00499006
-0.00434285
-0.000647206
0.0077709
-0.00216656
-0.00560433
0.0130897
0.0117742
-0.0248638
0.0371831
-0.0240935
0.000933275
-0.00593178
0.00499851
0.0054873
-0.00455402
0.635013
-0.436208
0.0926826
-0.0459181
-0.0467636
-0.0185907
-0.0203477
0.0389384
0.0277627
-0.0473106
0.0195479
-0.00388708
0.0038871
-0.0064356
0.0016835
0.0047521
0.0323432
-0.011388
-0.0209551
-0.0469922
0.0102965
0.0366958
-0.0857271
0.0151079
0.0706192
0.00352904
-0.0080504
0.00452136
-0.00787113
0.00538702
0.0024841
0.110389
-0.0355234
-0.0748647
-0.00316989
0.0620307
-0.0588603
0.0432506
-0.0412505
-0.00200011
0.0016058
-0.0199662
0.0183604
-0.0586914
0.0156978
0.0429936
-0.038441
0.054044
-0.015603
0.003289
-0.00764294
0.00435394
-0.00593375
-0.0022089
-0.00597939
-0.00721632
0.0131957
-0.0102265
-0.042709
0.0395393
0.0335011
-0.07621
-0.00372214
0.00989486
-0.00617272
0.0321802
0.0083732
-0.0405533
0.0197358
-0.00582827
-0.0139075
0.00312394
-0.00312397
0.00922207
-0.0282933
0.0190713
-0.00687286
0.00423455
0.0026383
0.0606335
-0.0576871
-0.002946
0.0305542
0.0323286
-0.0628828
0.0566881
-0.0261339
-0.00446577
-0.00240709
-0.0200728
0.021137
-0.00106417
-0.00791925
-0.0121536
0.00374268
-0.010959
-0.0061252
0.0076063
-0.00148109
0.00434192
-0.00662781
0.00228589
-0.0244447
0.0394422
0.0208468
0.0108887
0.00742708
0.0182964
-0.0240562
0.030045
-0.00598887
0.237991
-0.200276
-0.0377151
-0.00625122
0.00263217
0.00361905
-0.629205
0.343753
-0.0218843
0.0139651
0.0863485
0.464067
-0.550415
0.0550543
-0.0718025
0.0167482
-0.00363711
0.00613258
0.0126312
-0.0187638
0.00126394
-0.00126394
-0.0561294
0.473566
-0.417436
0.0134739
-0.00213028
-0.0113436
0.00811
-0.00392703
-0.00418297
0.00504402
0.00272688
0.00906673
-0.0278805
0.0188137
0.0185512
-0.0211344
0.00258327
0.0106788
0.00787232
-0.0263975
0.0532675
-0.0268699
0.00451218
0.00359782
-0.00243253
-0.00381869
-0.0118635
-0.0173537
0.0292173
0.00210109
0.00876494
-0.010866
-0.00347887
0.00562049
-0.00214161
-0.0066739
0.00319503
0.00585466
-0.000234155
0.000523157
0.0152641
-0.0157872
-0.0093266
-0.0295275
0.0388541
-0.00979623
-0.0360221
0.0458183
-0.430866
0.356216
0.0746499
-0.0338864
-0.00455459
0.0181886
0.0309521
-0.0491406
0.0165517
-0.00335601
-0.0214474
0.0213437
0.000103712
-0.0186255
-0.00282198
0.0263558
-0.0156769
-0.0477113
0.0286563
0.0190551
-0.00133481
0.00630827
-0.00497345
-0.0049362
0.0554636
-0.0505271
0.0556975
0.0484469
0.00701692
-0.00159218
0.0245295
-0.0229374
0.016419
-0.0158959
0.0148269
-0.0067471
0.0221271
-0.01538
0.00530751
-0.019557
0.0142495
-0.0094214
-0.00900376
0.0184252
0.00996247
0.00658925
0.000541076
-0.00241451
-0.0273323
0.0188177
0.00851468
-0.0226163
0.0253619
-0.00274564
-0.0499486
0.0441796
0.000180982
-0.00661658
-0.00373628
0.00560714
-0.00187086
-0.0266748
-0.567514
0.0581649
0.0360532
-0.0942177
-0.0135623
0.00696523
0.00659705
0.0107042
-0.00716728
-0.00353692
-0.0486065
-0.0232745
0.0718815
0.319878
-0.526419
0.206541
-0.00505676
-0.00516978
-0.0894302
0.223777
-0.134347
-0.919269
0.307995
-0.00560151
0.00641613
-0.000814616
-0.0078724
0.00714616
0.0342499
2.08243e-05
0.0258539
0.00839598
0.0245504
0.00731776
0.0138192
0.0126253
0.0041245
0.00969474
0.000810609
-0.0239939
-0.0167789
0.006741
-0.0161056
0.00936463
-0.0156934
-0.00108546
-0.00895245
-0.0250672
5.88224e-05
0.0250084
-0.0395043
0.0138249
-0.246498
-0.184368
-0.0257669
-0.037849
0.0231137
0.0309303
0.0316284
-0.390053
0.492221
-0.102168
-0.509826
0.501069
0.00162213
-0.00162214
-0.00607067
0.00258061
0.00349006
-0.0739351
0.0253288
-0.00109897
0.0443496
-0.433565
-0.485704
0.164533
-0.598097
-0.552645
0.0669405
0.00282032
0.0293598
0.0262621
-0.0268419
0.000579856
0.0398453
-0.0455302
0.00568483
-0.00676042
-0.014374
-0.0135075
-0.0051187
-0.00925534
0.0581411
-0.142623
0.0844816
0.245154
0.221207
-0.466362
0.344213
-0.0990587
0.555666
-0.0171338
0.0211191
-0.00398521
-0.0154596
0.0216879
-0.00622822
-0.0325934
0.042807
-0.0102515
-0.0492287
0.0594802
0.0366915
-0.000176694
0.02644
-0.0335285
0.0273003
0.00365459
-0.0204111
0.00542708
0.00300008
-0.00842716
-0.00286556
0.00716321
-0.00429764
-0.0455908
-0.00140145
-0.0142713
0.0420341
0.0277258
0.0212458
-0.0489716
0.0368457
-0.0301394
-0.00670636
0.0314907
-0.0305721
0.0331236
-0.0289081
0.00792449
-0.0022555
-0.00566899
0.511137
0.123876
0.582961
-0.0718241
0.886131
-0.418797
0.0859651
-0.00758947
0.000945384
0.00664409
-0.00827267
0.00270245
-0.00981007
0.00674562
0.00306446
0.00170828
-0.0115184
0.0119779
-0.0052323
0.00488525
0.0197035
-0.0245887
0.00954843
0.00296552
-0.012514
0.0072549
-0.00805547
0.000800577
0.00558787
-0.00728184
0.00169397
0.00339563
-0.00713191
0.0126364
-0.0312271
-0.0088288
-0.00658137
0.0154102
0.0060262
-0.014855
0.00734726
-0.0139286
-0.0210773
0.0115038
-0.00477657
0.0312165
-0.00837796
0.0121206
-0.00703221
0.0119175
0.0240381
-0.488505
0.545805
-0.0573002
-0.0222434
-0.00386398
0.0261074
0.00139665
0.0183068
0.0144429
0.0215356
-0.0731486
0.0516131
-0.0316255
0.0531613
0.000537794
-0.00514345
0.00460566
0.00577311
8.15503e-05
0.0063109
-0.0050619
0.759127
0.00960531
-0.768732
-0.0517957
-0.512946
0.193633
0.319313
0.0346853
0.00516005
-0.00743422
-0.0338163
0.0272511
-0.0396128
0.0714705
-0.0318577
0.442341
-0.547648
0.105307
-0.0391169
-0.030128
0.0692449
-0.0734699
0.034353
-0.357835
0.59337
-0.235535
-0.577648
0.557372
-0.0592575
0.163773
-0.104516
0.108813
0.129177
0.00324892
-0.00312144
-0.000127477
0.255319
0.114878
-0.370197
0.261926
0.0184928
-0.016887
0.00888878
0.0237939
-0.0326827
-0.020663
-0.0119304
-0.032931
0.0231348
-0.0166857
0.0503352
-0.0336495
-0.886086
-0.188362
1.07445
0.571651
0.373641
-0.945292
0.470377
0.28735
-0.757727
0.180578
0.2898
-0.507612
0.618595
-0.466525
0.631058
-0.306176
0.392524
-0.440882
0.362577
0.755101
0.0116104
0.0207328
-0.0206771
-0.00337905
0.0305893
-0.0222161
0.00502329
0.0310514
0.00185614
0.00884807
-0.00763496
-6.65516e-05
0.00770152
-0.00577883
0.00878152
0.506248
-0.0421812
-0.0900052
0.44812
-0.358115
0.416242
0.00134702
-0.00215548
0.00080845
-4.28015e-05
0.00239131
-0.00234851
0.0586649
-0.767032
0.708367
0.00228895
-0.000212262
-0.00207669
0.16257
-0.104429
-0.039161
1.1795
0.285795
-0.962668
0.676873
-0.00158304
-0.00230404
0.00225994
-0.00384298
-0.753723
0.339612
0.414111
0.573145
-0.859832
0.494014
0.365818
0.0860101
-0.0239793
-0.267715
0.498489
-0.230774
-1.2111
0.562549
-0.00177248
0.00177247
-0.696418
0.669743
-0.00850652
0.00404074
0.777189
-2.03024
0.749066
-0.758293
0.00922713
-0.554457
1.62298
-0.606639
0.69444
-0.0878001
0.385447
0.257048
-0.642494
0.827788
0.00248484
-0.00248485
-0.24374
0.777998
-0.534258
-0.732245
-0.466353
0.800413
-0.623643
0.036445
-0.0680705
-0.869836
-0.341266
-1.28367
0.822625
0.53573
-0.613442
-1.03492
0.469646
0.0458401
0.462989
0.877366
-1.34035
-0.828928
1.29192
-1.38338
-0.773792
0.354011
-0.689399
-0.0843936
-0.868361
0.00852894
-0.809696
1.33924
-0.814737
0.184783
0.394829
0.00153964
0.00271223
-0.00425187
-0.128136
0.364084
0.214172
-0.903571
-0.365481
0.153039
0.212443
-1.07654
0.624668
0.124398
-0.633197
0.00277964
-0.00299812
0.000218494
-0.955394
0.032423
0.0808701
0.0220099
-0.465251
0.649319
-0.184068
-0.343235
1.47608
-1.81931
-1.01289
-0.105596
0.927312
0.523171
-0.0197322
-0.0921268
0.0723945
0.828348
-0.50847
0.363097
-1.69325
1.39837
0.895445
-0.404103
0.21068
0.193423
-0.989556
1.84962
-0.737456
0.535779
0.201677
-0.26187
-0.475586
-0.207291
1.24389
-1.45118
0.00228373
-0.00066161
-0.305447
0.781103
0.0454047
-1.31796
0.1985
-0.519142
-0.001345
0.001345
-0.0117785
-0.610453
1.54143
-0.179669
0.611739
0.0705819
0.0398069
-0.0240592
0.0563878
0.241132
0.115084
-0.162971
0.0109905
0.607721
-0.598116
-0.555925
-0.283692
0.901538
-0.41868
0.00251661
-3.17642e-05
0.647053
0.0325458
-0.4804
-0.590195
-0.0334478
-0.900602
0.310407
-0.534784
0.709188
-0.4343
0.549384
-0.717992
-0.266208
0.476888
-1.34641
-1.48997
0.649422
-1.04383
0.0547045
0.00198356
-0.253295
0.83175
-0.578454
0.0407251
-0.105883
0.0623739
0.0435091
-0.0595902
-0.0462918
-1.18973
1.05149
0.13824
0.228088
-1.27191
0.828343
-0.361391
0.0313863
0.230451
-0.261837
-0.0863567
0.117743
-0.00782077
0.0222636
0.0162173
0.0167584
0.00485826
-0.393468
-0.5692
-0.61933
0.0923784
-1.5568
-0.0238603
-0.0617693
0.770266
-1.52988
0.759615
-0.877159
1.64743
-0.752692
0.212861
0.16285
1.23017
1.5568
0.170489
0.0541446
-0.0487481
-0.00539622
-0.00354242
1.64319
-1.02713
0.914961
-0.282697
0.00423089
-0.0963577
-0.0762135
0.0804444
0.87396
0.200488
0.688627
-1.0627
0.643901
-0.374071
-0.937396
0.478455
-0.651892
0.0373353
0.815333
0.532636
-0.575665
-0.895733
0.320068
-1.08556
0.537412
-0.0478199
0.120214
0.0326245
0.150367
-0.0038892
0.00363071
0.000258478
-0.00234956
-0.144764
-0.573228
-0.391262
0.0185625
1.58807
1.08677
0.00187954
-0.00464082
0.00276129
-0.0035998
0.00547933
0.0095744
-0.00560466
-0.00396975
0.0022327
0.0073417
-0.00357168
0.00658585
-0.00301417
0.00566041
0.000294166
-0.00595457
-0.00105907
0.00949277
-0.00843369
0.00676472
-0.0065372
-0.000227522
-0.00461938
-0.0023509
0.00697027
-0.000376687
-0.00559152
0.00596821
-0.00442629
0.00211582
0.00231046
0.00175996
0.00713922
-0.00889919
-0.00137266
0.0107697
-0.00939701
-0.0103239
0.00369816
0.00662573
-0.00122109
0.0097942
-0.0085731
-0.0153713
0.0152352
0.000136077
-0.00679691
0.00343517
0.00336174
0.010058
-0.0121404
0.00208247
-0.0168553
0.0118924
0.00496293
-0.00429469
0.00391432
0.000380374
0.0078734
-0.00924606
-0.0183254
0.00106117
0.0172642
-0.0104582
-0.00786724
-0.00699804
0.00295495
0.00404309
0.000281698
-0.00727973
0.00498419
0.00408004
-0.00906424
-0.00761814
0.000653847
0.00696429
-0.00254705
-0.00507109
0.00041547
0.00538201
-0.00579748
0.00952278
-0.0100955
0.000572759
0.0086156
0.000907178
-0.00797661
-0.00355626
0.0115329
-0.00544043
0.00506375
-0.0012474
-0.00481891
0.00606632
0.00280424
0.00428244
-0.00708668
-0.00768324
0.00710931
0.000573921
-0.00285465
-0.00482858
0.00622272
-0.00876978
-0.0102541
0.00188271
0.00837141
-0.00348323
-0.00677089
0.00126343
-0.00565231
0.00438888
0.00458338
-0.000576357
-0.00400702
0.00387218
0.000711201
-0.0175746
0.0302111
-0.00247538
0.00469551
-0.00222013
-0.0055973
-0.000602077
0.00619937
4.59741e-05
-0.00564327
0.00187701
-0.00335229
0.00147527
0.0271968
-0.0437955
0.0165986
0.0264714
-0.00830862
-0.0181628
0.00231931
-0.00879411
0.0064748
0.0107842
-0.000745983
-0.0100382
0.00393586
-0.00274337
-0.00119249
-0.00747361
-0.0027295
0.0102031
-0.0139835
0.00905246
0.00493099
0.00495379
-0.0105354
0.00558161
-0.00587548
0.00114173
0.00473375
0.0140755
-0.00403046
-0.010045
-0.00781067
0.0218862
0.000700438
0.00759116
-0.0082916
0.00307749
0.00775946
-0.0108369
-0.00684396
-0.00217278
0.00901674
0.00572375
-0.0121313
0.00640754
0.0084597
-0.00720808
-0.00125162
0.00293195
-0.00935972
0.00642777
0.010052
-0.0225655
0.0125135
0.00238256
-0.00659117
0.00420861
-0.00694921
-0.000905972
0.00785518
0.00992623
-0.00547036
-0.00445588
-0.0081959
-0.000395253
0.00859116
-0.00665115
-0.000890758
0.00754191
0.00698193
-0.323756
0.316774
0.191287
-0.184305
0.0101486
3.48922e-05
-0.0101835
-0.00182642
-0.00804684
0.00987326
0.000814726
-0.00417097
0.00335625
-0.00923364
0.00596514
0.0032685
0.00187998
0.00876269
-0.0106427
-0.011339
-0.00403236
-0.00467029
-0.00666867
0.0110882
0.0153832
0.00843348
-0.00843347
-0.00458251
-0.00449899
0.0090815
-0.00942609
-0.00590716
0.0153333
0.00641621
-0.0023947
-0.00402151
0.00739967
-0.00683747
-0.000562194
0.00493048
-0.00549987
0.00791168
-0.00241182
-0.00901646
0.00111553
0.00790093
-0.00396006
-0.0050564
-0.00811811
0.00825802
-0.00825802
-0.00204182
-0.00422864
0.00627046
-0.00805876
0.00762889
0.000429866
-0.00129527
-0.00676348
-0.00398266
0.0067606
-0.00277794
-0.00590038
0.00367016
0.00223022
0.00178667
-0.00768705
-0.00479175
-0.00251673
0.00730849
-0.0108505
0.00480979
0.00604075
-0.00947739
0.00987545
-0.000398065
-0.00535312
-0.00412426
-0.000216013
0.0179563
-0.0177403
-0.0197495
0.0281459
-0.00839638
0.0046109
0.000379168
0.0079703
0.000685256
-0.00865555
0.00984542
0.00663994
-0.0164854
0.0288349
-0.043025
0.0141901
-0.00900272
0.0105025
-0.00149976
-0.00554544
-0.0108236
0.016369
0.00847828
-0.00533497
-0.00314331
0.00156236
0.00691593
-0.0042893
-0.0042783
0.0085676
-0.00731926
0.0102512
-0.0123763
0.00553233
-0.00450609
0.010737
-0.00623096
-0.00122799
0.00338146
-0.00215347
0.00416025
-0.00610613
0.00194588
-0.00985432
0.00218306
0.00767126
0.010868
-0.00352422
-0.00734375
0.00429894
0.00656903
-0.00552049
0.00130811
0.00421239
-0.00487957
0.00492555
-0.00908209
-0.000277628
-0.0060046
0.00325222
0.00486462
-0.00811684
0.0048378
0.00414888
-0.00898667
-0.00458331
0.00999179
-0.00540847
0.0082241
-0.00951937
-0.00884091
0.00776284
0.00107807
-0.00605639
0.00245659
0.00831735
-0.0029642
-0.00535315
0.0108368
-0.0116353
0.000798514
-0.00469837
0.00414626
0.0005521
0.00597136
0.00351284
-0.0094842
-0.0053847
0.0148414
-0.00945669
-0.0159402
0.00548202
-0.00588225
-0.00826429
-0.00740417
0.0156685
0.0135485
-0.0218128
0.0392809
0.00981413
-0.00825832
0.00604922
0.0022091
0.00670648
0.00100525
-0.00771172
0.00801484
0.00505865
-0.0130735
0.0307444
-0.0638548
0.0331106
0.0492217
-0.0184772
-0.00627401
0.00618138
9.26258e-05
-0.0239054
-0.0241766
0.0480819
0.115056
-0.013134
-0.101923
-0.00694853
0.00800079
-0.00105226
0.0295771
-0.00471437
-0.0248628
0.0400165
-0.0104394
-0.00247139
0.00690553
-0.00443414
0.0012979
0.0103765
-0.0116744
-0.00533649
0.000594331
0.00474215
-0.000717572
0.00902837
-0.00831079
-0.00869771
0.0120875
-0.00338977
0.0163747
-0.0115493
-0.00482544
-0.000983674
-0.00464594
0.00562962
-0.00169554
-0.0037869
0.00548244
0.00549378
0.0049019
-0.0103957
0.00570302
0.000536754
-0.00623977
0.0120107
-0.00738178
-0.00462888
0.0102101
0.00180057
0.00473013
0.00505324
-0.00978338
0.00823203
-0.00324784
-0.00107876
-0.00633993
0.00741869
0.00223604
-0.00770668
0.00547064
0.0102996
-0.00806693
0.0100736
-0.00742556
-0.00264807
-0.00507752
0.000182286
0.00664165
-0.00363193
-0.00300972
-0.000155259
-0.00925886
0.00562693
-0.00331478
-0.0044907
0.00780548
0.0105096
-0.012336
-0.00822352
0.00393423
0.0023291
-0.00732834
0.00499924
0.00585814
0.00702977
-0.00464721
-0.0108921
0.00317653
0.00771557
0.00633366
-0.00405971
-0.00227394
-0.00294622
-0.000851611
0.00379784
0.000522135
0.00447811
-0.00500024
0.00647658
-0.00595444
-0.00052465
-0.00813402
0.00865867
-0.0797665
-0.192828
0.272595
-0.0363169
0.0307444
0.0055725
0.00569382
0.000424694
-0.00611851
-0.00256449
-0.00761115
0.0026257
0.00498545
-0.00685807
-0.00672392
0.013582
-0.00485041
-0.00861601
0.0134664
-0.00479294
0.00939236
-0.00459941
-0.00380883
0.0104833
-0.00667445
0.00563691
-0.00341807
-0.00221884
0.000596646
0.00504027
-0.0021937
-0.00210099
0.00151441
0.00692499
-0.00843939
0.00206853
0.00589007
-0.00795859
0.000372893
-0.00801876
0.00764586
0.00446138
0.0114018
-0.0158632
0.000205798
-0.00766818
0.00746238
-0.00661376
0.00681956
0.00416565
-0.00655872
0.00239308
-0.00569384
0.00686707
-0.00117323
-0.00115025
-0.00454359
0.00652821
0.00463153
-0.0111597
0.414229
-0.220597
-0.00560295
0.0111949
-0.0055919
-0.0118428
0.00386613
-0.00996277
0.00695366
-0.00497382
-0.00197984
0.00497972
0.00115848
-0.0061382
0.00730576
-0.00585641
-0.00144935
-0.00123634
-0.00694943
0.00818577
-0.00107549
-0.00742493
0.00850042
0.00292132
-0.00919531
0.00627399
-0.00741024
-0.00708894
0.0144992
0.00025282
0.00692742
-0.00718024
0.000582976
0.00620314
-0.00678612
-0.000827669
0.00884251
-0.0109021
0.0035828
-0.00314261
-0.00879349
-0.00744331
0.00657992
0.000863396
-0.00370084
-0.00374247
0.00700094
-0.00688072
-0.000120222
0.00350676
0.00349418
-0.0069549
0.00957927
-0.00262437
-0.00789243
0.000937526
-0.00537914
-0.00434314
0.00972228
0.00535121
-0.0171922
0.011841
0.0121337
-0.00778646
-0.00434722
0.0073319
0.00480179
-0.0410695
-0.0130021
0.00571407
0.00346206
-0.00917613
-0.0108503
0.00701572
0.00383454
0.00347708
0.00333472
-0.0068118
0.0158766
-0.00724745
-0.00862914
0.0106774
-0.0145907
0.00391334
-0.00435115
-0.00442243
0.00877358
0.000597232
-0.00965596
0.00905873
-0.0037529
-0.0078574
0.0116103
0.00953412
-0.00697776
-0.00255635
0.00408183
0.00551166
-0.00959349
-0.0023492
-0.00808667
0.0104359
-0.00498074
-0.00486759
0.00984833
0.00270631
0.0051441
-0.00785041
0.00685397
-0.00755411
0.000700139
0.00127028
-0.00974901
0.00847873
-0.026308
0.0206064
0.00570168
0.00801891
-0.0343269
0.0101034
-0.00719525
-0.00290812
-0.00753252
0.00133139
0.00620113
0.00369489
0.00454025
-0.00823513
0.000925447
0.00318179
-0.00410723
0.0580383
0.0239142
-0.0819525
-0.0276888
0.00907586
-0.00847863
0.00496669
0.00166466
-0.00663135
0.000141717
0.00603719
-0.00617891
-0.0220193
0.0149736
0.00704579
-0.0139064
-0.00811299
0.00242484
-0.00761712
0.00519227
-0.0411021
0.000548735
0.00847149
-0.00878498
0.000313484
0.00517111
0.00612439
-0.0112955
0.00706783
-0.00253092
-0.00453691
0.0198063
-0.0105842
0.0108941
0.00655105
-0.0174452
0.000752503
-0.0093989
0.0086464
0.00181661
-0.0129565
0.0111399
0.000189597
-0.0129109
0.0127213
0.00511254
-0.0082516
0.00313906
-0.0103743
0.0035146
0.00685966
-0.00345608
-0.0054618
0.00891788
0.00304775
0.00550407
-0.00855183
0.00710514
-0.00682344
0.00444532
0.00392463
-0.00836995
-0.00950133
0.00445888
0.00504245
-0.0017738
-0.00772752
-0.00733225
0.0085702
-0.00123794
0.00850915
-0.000369399
-0.00813975
-0.00169454
-0.00204046
0.003735
-0.00277867
0.0141724
-0.0113937
-7.76256e-05
0.0123167
-0.0122391
-0.000156756
-0.0104697
0.0106264
0.00783982
-0.0126917
0.00485183
-0.0113444
0.00329751
-0.00839085
-0.0029535
-0.00712782
-0.00502813
0.0121559
0.00353142
-0.00990752
0.0063761
-0.00803757
-0.00146781
0.00950538
-0.00652316
-0.00880006
0.0017525
-0.00591469
0.00416219
-0.00318442
0.00486792
-0.0225953
0.0111302
0.0114651
0.00808465
-0.00132728
-0.00675737
-0.0058603
0.00680795
-0.000947653
0.0144713
-0.00379395
0.00973163
0.00473969
0.0120826
0.00870672
-0.00754137
-0.00116536
0.00205557
-0.00464951
0.0381509
0.0108239
-0.00362253
-0.00720133
0.00818552
-0.00928683
0.00110131
0.00108053
0.00710498
0.00841352
-0.00891598
0.000502461
0.00430735
0.00410617
-0.00352466
-0.0162249
-0.0113353
-0.00829818
-0.00792666
0.00791144
-0.00193471
-0.00597673
-0.00656712
0.00604425
0.000522872
0.00240267
0.00161982
-0.0040225
-0.0131735
0.00586557
0.00730792
-0.00609349
-0.00548834
0.0115818
-0.0233613
-0.0190629
0.0424242
-0.0104113
0.00613629
0.00427502
-0.00568229
-0.00472903
0.0111142
-0.00826314
-0.00285109
0.00300431
0.00779119
-0.0107955
-0.00866451
0.00760544
0.00216783
-0.00896545
0.00679762
-0.00678655
0.00521908
0.00156747
-0.0018447
0.00347108
-0.00162638
-0.00460634
0.0161708
-0.0115645
-0.0246529
0.0200466
0.138861
-0.241028
-0.184896
0.0661566
-0.0206119
-0.0455445
-0.0108356
0.00480735
0.00602822
-0.0118367
0.00100117
-0.00431717
-0.00571431
0.0100315
0.00557445
-0.00989163
-0.0122988
0.0215935
-0.00929472
0.017832
0.0272307
-0.00563714
-0.0118069
-0.0407127
0.0525197
0.0301889
-0.0419959
-0.00119684
0.00750774
-0.00439178
0.0250881
-0.0206963
0.0123812
-0.0297767
0.0173955
0.00131083
-0.00856346
0.00725263
0.0180284
-0.00515298
-0.0128754
0.0149357
0.00309273
0.00538812
0.00514036
-0.0105285
-0.00544883
-0.0100601
0.0189402
-0.00888008
0.00352484
-0.00522038
-0.00304228
-0.0385873
-0.0339589
0.0725465
0.0417339
-0.0646451
0.0229112
0.00477517
0.00614474
-0.0109199
-0.00278949
0.00756466
5.8828e-05
0.00608592
0.00302906
0.00511373
-0.00814279
-0.00296202
0.00851221
-0.00555019
0.00599033
0.00192111
-0.00392768
0.00964175
-0.00254523
-0.00229648
0.00484169
-0.0104467
0.0141732
-0.00372655
-0.00622765
0.0148393
-0.0086117
0.0102403
-0.00147766
0.00668408
0.0111542
-0.00143023
-0.00972395
0.00382258
0.00418845
-0.00801103
-0.0113577
0.00650726
-0.00434537
-0.00656801
0.0109134
0.00920234
-0.0046358
-0.00456654
0.00182056
-0.00659435
-0.00420873
0.0108031
-0.00584185
0.0042975
-0.00850623
0.00321127
-0.00922858
0.00601731
-0.00630281
0.00951407
0.00590535
-0.00438277
-0.00152257
-0.00761726
0.00380068
0.00381659
0.00872146
0.00125677
-0.00997823
0.0029415
0.00408591
-0.00702742
0.00472818
0.00564827
0.00849435
-0.0102827
-0.00822252
0.00319589
0.00502662
0.0175253
0.0229935
-0.0405189
0.037069
-0.0194117
-0.0176573
0.000698295
0.00656359
-0.00726189
-0.00553936
0.00623766
0.00173145
0.00483214
0.00976336
-0.00465082
0.0035053
0.00555987
-0.00906517
-0.000178248
-0.00470132
0.00569874
-0.00153309
-0.00623442
-0.0115144
0.00932044
0.00219395
-0.0111943
0.0104768
0.00695183
-0.00297202
-0.0039798
0.00184962
0.0116989
0.0119016
0.00553112
0.0061678
0.00679428
-0.0102775
-0.0014445
-0.00895487
0.0103994
0.0133902
0.00177489
-0.0151651
0.0206171
0.00942792
0.0329983
-0.00301367
-0.0054222
0.00843587
-0.00632557
0.0033119
0.00436152
-0.00496359
-0.00880309
-0.028739
0.0375421
0.000442737
0.00792763
-0.00837037
0.0108776
-0.00870401
-0.00217354
-0.0167047
-0.00042175
0.0171265
-0.0444714
0.0207712
0.0237003
0.0355391
-0.0261074
-0.0094317
0.00320282
0.00631732
-0.00952014
0.013145
-0.0205492
-0.00019104
0.00618137
0.0047997
-0.00499074
0.00414442
0.00203695
0.00429768
0.00519509
-0.00529715
0.00959483
-0.00230868
0.00750376
0.00866306
-0.0225694
-0.00615875
0.00517507
-0.00604301
0.0038343
0.00220871
0.000663467
0.0222085
-0.0253661
0.00315758
-0.00683673
-0.00401382
0.00524913
0.00151559
0.0056646
0.00721861
0.00874815
-0.00658032
-0.00667892
0.00667894
-0.037537
0.0109218
0.0266152
0.00517869
-0.00692063
0.00174194
0.00693119
-0.00165844
0.00432188
-0.00266344
-0.00189143
0.00189142
0.0190371
0.0180319
-0.00829915
0.00729836
0.00100079
0.0318341
-0.000903809
0.0066912
0.0043807
-0.0110719
-0.00261834
0.00930954
0.00179161
0.00791914
-0.00971075
0.00667435
-0.00319727
0.00881114
-0.00988663
0.038054
0.0185603
-0.0566143
-0.00553806
-0.00524282
0.0107809
-0.01342
-0.00328469
-0.000362013
-0.013058
0.014069
-0.0173537
-0.00623724
0.000815054
0.0255656
0.00185328
-0.0274189
0.0101819
0.0153838
-0.0269485
0.0288018
-0.00245851
0.00780877
-0.00535026
0.00288505
0.00537143
-0.00825648
-0.00398085
0.00398086
-0.00441978
0.00716267
-0.00274289
-0.00658634
-0.0341635
0.0170768
0.0170868
-0.0119551
-0.0075761
0.00488814
-0.00488817
-0.00365346
0.00365347
-0.00301472
0.0127466
-0.00973188
-0.00117165
-0.0073505
0.00852216
-0.0085292
0.00623196
0.00229726
0.00104655
-0.00550983
0.00446328
0.00598322
-0.00142136
-0.00456186
0.00702977
-0.0108192
0.00937467
-0.00683489
0.00682357
1.13276e-05
-0.0042161
-0.00210947
0.0064173
-0.0102261
0.00298728
-0.00298728
0.0045793
0.00365274
0.00524276
-0.0120157
0.00362133
0.00839434
-0.0147976
-0.000186008
0.0149836
-9.66792e-05
-0.010082
0.0101787
-0.00692958
-0.00865433
0.0155839
0.00627146
-0.00403542
0.00278584
-0.00651171
0.00372587
0.0259727
-0.000467344
-0.0255054
0.0238041
0.00342653
-0.00734568
0.00826715
-0.000921471
-0.0115414
0.00468332
-0.0137251
0.00218371
0.0133487
-0.00866534
-0.0100781
0.000679194
-0.00670147
-0.00337663
0.000625364
0.00595455
0.0177309
0.0100048
-0.0277357
0.00371087
0.00614182
-0.0098527
0.00728387
-0.0167763
0.00949241
0.00441345
-0.00441352
-0.00943794
0.00259007
0.00684786
0.00337398
-0.00861331
0.00523934
0.00289688
-0.00289687
0.00873949
-0.00573518
-0.0122911
0.0101129
0.00217823
0.00288098
-0.0071095
0.00422852
-0.0133248
0.014386
0.00364334
-0.0070575
0.00341416
0.00627551
-0.00545834
0.00551995
-6.16127e-05
0.00577926
0.000220451
-0.00599971
-0.0209289
0.0239674
-0.00303848
0.0209525
-0.000275214
-0.0206772
0.0101109
0.00512433
0.0103005
0.0124082
-0.00390235
-0.0100811
0.00438584
-0.00828819
0.00023563
-0.0103167
-0.00400534
0.00592954
-0.0019242
0.00396194
0.0024079
-0.00636984
-0.0057168
0.00571681
0.00424244
0.00391314
-0.00815557
0.00206785
-0.00206785
0.00625576
-0.0108916
-0.00828013
0.00808448
0.000195658
-0.265307
0.0603339
0.204974
-0.166455
0.244631
-0.0781767
-0.431762
0.304965
0.00977408
-0.00113155
-0.00864253
-0.0065171
0.000847533
0.00566957
-0.00363612
-0.465505
0.321225
0.14428
-0.152825
-0.31268
-0.00100989
0.01122
8.17544e-06
-0.0148058
0.0138824
-0.00868229
-0.00520013
0.0138906
-0.00642789
0.00597986
0.000448035
-0.00449967
-0.00702396
0.0115236
-0.00713879
0.00606003
-0.0073769
-0.00099579
0.00837269
0.0221373
0.00412481
-7.05712e-05
-0.0208583
-0.0275207
0.034509
-0.00698827
0.0124958
-0.00620369
-0.00305117
0.00305117
0.00185004
0.00616532
-0.00801535
-0.00569767
-0.00253555
0.00823322
-0.00384763
0.00362976
0.00268526
0.00438257
0.0066472
-0.0112042
0.0134405
-0.00223628
-0.000267525
0.018764
-0.0184965
0.0212484
-0.0215159
-0.000422301
-0.00515355
0.00557585
-0.0333557
0.00766839
0.0256875
-0.027779
-0.00557669
0.0336318
-0.0259633
0.00440118
0.00257452
-0.0069757
0.00570929
0.00673477
-0.0126955
-0.000116832
0.0128124
-0.0100825
-0.00261301
-0.0025659
0.0549703
-0.0524044
-0.0143667
-0.0231704
-0.00486261
-0.00168091
0.00121806
-0.00519188
0.00397382
-0.000322045
-0.00599411
0.00631616
-0.00638688
0.00606484
0.0029589
0.0135988
-0.0165577
-0.0141664
-0.00353867
0.017705
-0.0112075
-0.00618549
0.00761376
-0.00142827
-0.00518025
0.00667626
-0.000897005
-0.0326763
0.000940574
0.0317357
-0.0146219
-0.0180544
0.0350573
-0.0341167
0.0217303
-0.01891
-0.00511163
-0.00119299
0.00119299
0.00437436
0.00111294
-0.00125256
0.00562692
-0.0142127
-0.0155641
-0.0186045
0.0014817
-0.0014817
0.00348343
-0.00348346
-0.00201723
0.00201721
0.00602509
-0.00121529
0.00123334
-0.0234478