/*--------------------------------*- C++ -*----------------------------------*\
  =========                 |
  \\      /  F ield         | OpenFOAM: The Open Source CFD Toolbox
   \\    /   O peration     | Website:  https://openfoam.org
    \\  /    A nd           | Version:  6
     \\/     M anipulation  |
\*---------------------------------------------------------------------------*/
FoamFile
{
    version     2.0;
    format      ascii;
    class       volVectorField;
    location    "1300";
    object      U;
}
// * * * * * * * * * * * * * * * * * * * * * * * * * * * * * * * * * * * * * //

dimensions      [0 1 -1 0 0 0 0];

internalField   nonuniform List<vector> 
29884
(
(7.48207 0.0592463 -1.04169e-16)
(5.32606 0.0254541 8.95169e-17)
(5.412 -0.115444 4.88907e-17)
(7.1103 -0.0760894 1.1231e-18)
(7.21667 0.103531 -2.9196e-17)
(5.74381 0.155778 6.9918e-17)
(7.89163 -0.117575 -3.48619e-19)
(7.39126 -0.00100881 4.23765e-17)
(4.69639 0.121852 2.59218e-17)
(7.13537 0.0177918 7.46387e-17)
(7.44366 0.00870427 -3.23381e-17)
(7.20164 0.1955 1.81426e-17)
(8.07928 -0.13222 -2.55901e-17)
(7.16272 -0.112672 2.44094e-17)
(7.18551 0.098688 -3.27109e-17)
(4.43338 -0.0563871 8.47666e-17)
(8.2279 0.0504109 -3.52929e-17)
(6.67137 0.195872 -5.94061e-17)
(6.52215 0.163357 0)
(4.17972 -0.00386095 -1.64839e-16)
(7.79738 0.210372 1.44861e-16)
(4.94064 -0.0377855 0)
(8.0061 -0.0625052 -4.12841e-18)
(7.11443 -0.0216385 0)
(7.07076 -0.0132081 0)
(7.59543 0.0431676 -2.64986e-17)
(7.8503 -0.0103797 0)
(8.02049 -0.0438317 8.36817e-17)
(5.16066 -0.024953 8.66603e-17)
(5.16404 0.113383 7.29387e-18)
(5.39986 -0.00813511 -1.48935e-17)
(4.81383 0.0891392 4.9297e-16)
(7.99393 0.0367775 -2.46835e-17)
(7.44328 -0.0311202 0)
(7.27755 -0.0593778 -7.74322e-17)
(7.50846 -0.105333 6.13994e-17)
(5.01762 -0.0351907 8.00486e-17)
(7.55092 0.13452 9.70803e-18)
(5.35529 0.14659 -7.77186e-17)
(7.78008 -0.15186 -3.70908e-17)
(5.02585 -0.0504638 0)
(7.05826 0.0707322 1.6036e-17)
(7.60512 0.194665 -4.72959e-17)
(7.2347 0.282475 -3.11078e-16)
(6.9727 -0.0164092 2.0253e-17)
(7.57839 -0.153046 -2.26744e-17)
(8.02288 -0.203995 0)
(7.67986 -0.115587 -6.59613e-18)
(4.80727 0.034546 -1.14673e-17)
(8.36129 0.0909432 0)
(7.37461 0.125125 0)
(7.18496 -0.0742674 5.30774e-18)
(4.71746 -0.152062 3.70122e-17)
(8.41524 0.0283772 1.02728e-16)
(7.20374 -0.0623492 -8.17066e-17)
(7.09082 -0.13756 6.18196e-17)
(4.41323 -0.0181465 9.65245e-18)
(7.98541 -0.0536421 0)
(6.66752 0.0514026 6.37423e-17)
(6.89993 -0.141538 -1.01245e-16)
(7.76826 0.161217 -1.82277e-17)
(7.81696 -0.00880395 2.43023e-17)
(4.71643 -0.100554 0)
(8.13731 0.05192 -4.05882e-17)
(7.12346 -0.0692075 2.88423e-17)
(7.00911 0.0797659 -6.34705e-18)
(7.45805 -0.0428717 8.89053e-18)
(7.83235 -0.11613 5.91292e-17)
(7.41236 -0.0944969 -3.95494e-17)
(7.33442 0.0669783 5.48619e-17)
(7.2475 0.196331 3.99179e-17)
(7.67257 0.0659084 -1.27341e-17)
(7.51797 0.101919 0)
(5.63191 -0.138872 0)
(7.30723 -0.105114 -4.90735e-17)
(6.9159 -0.092334 -1.82901e-17)
(8.13774 0.106004 0)
(7.88201 -0.122688 0)
(8.0887 -0.116266 0)
(5.09861 0.0357409 0)
(7.67391 -0.077422 5.12153e-17)
(5.23096 -0.0517569 0)
(7.11882 -0.137312 0)
(7.01614 0.092811 2.73269e-17)
(6.58406 -0.0531922 -1.93985e-17)
(4.55265 -0.503597 -9.05448e-18)
(7.35643 -0.000629704 0)
(7.60653 -0.0309567 0)
(7.25837 -0.107944 4.44887e-18)
(3.6994 -0.843792 1.82218e-17)
(7.19378 -0.198572 0)
(7.88624 -0.24098 -1.90353e-17)
(4.57246 -0.0973824 -5.16926e-17)
(3.36946 -0.715631 0)
(7.1235 0.124752 -4.28591e-17)
(1.68823 -0.37649 0)
(6.99611 0.0139009 -7.28294e-17)
(7.00707 0.0127631 9.64357e-17)
(7.47372 0.0543688 7.2258e-18)
(3.41688 -0.549951 0)
(7.0119 0.0366178 4.82845e-17)
(6.94263 0.0726857 1.08415e-16)
(7.66127 0.0152358 0)
(7.75558 0.019033 -3.04875e-18)
(7.36134 -0.115951 -4.54426e-18)
(8.12349 -0.115212 0)
(3.84576 -0.639432 1.48237e-17)
(3.72927 0.0422429 -3.7063e-17)
(7.12381 0.131551 -4.86097e-17)
(6.97465 -0.327273 0)
(7.40404 -0.210167 0)
(1.55438 -0.219882 5.17407e-17)
(7.25343 -0.0785706 2.98726e-18)
(7.14837 -0.114634 0)
(7.30805 -0.118277 -2.70678e-18)
(6.97463 0.108538 -2.74588e-17)
(7.1632 0.114193 0)
(7.13556 -0.225161 0)
(6.76739 -0.0760169 0)
(6.64921 -0.311714 4.11584e-17)
(7.0036 0.00596992 0)
(6.85822 -0.300858 2.64788e-17)
(7.32358 -0.157546 4.11252e-17)
(6.78589 0.193378 0)
(7.03552 -0.0242108 1.29495e-17)
(7.05298 -0.191139 -6.14604e-17)
(7.80878 -0.268665 4.58126e-18)
(7.95917 -0.037821 1.53321e-17)
(6.87165 -0.220914 -4.41584e-18)
(6.989 0.135954 0)
(6.77386 0.165237 1.29946e-17)
(6.95021 0.118393 -1.46486e-17)
(6.96702 -0.102849 4.04148e-17)
(8.1346 -0.114921 0)
(6.88342 -0.0859047 0)
(7.47146 -0.0878539 0)
(7.65005 0.235912 0)
(7.34892 -0.109575 6.15917e-18)
(7.53603 -0.143655 -1.56486e-17)
(7.53631 -0.129998 3.25055e-17)
(7.39671 -0.114507 0)
(7.28466 -0.016241 2.48333e-17)
(7.70162 0.141325 -1.82383e-17)
(7.73906 -0.224832 -9.29556e-18)
(7.9818 -0.181858 -1.01574e-17)
(8.00677 -0.207193 1.00291e-18)
(7.75627 -0.174359 1.88594e-17)
(7.4916 0.175741 5.42701e-17)
(7.81234 0.11728 -4.56607e-17)
(7.75012 0.206507 4.98369e-17)
(7.64149 0.124341 0)
(4.32672 -0.120031 -2.38327e-17)
(3.96527 0.0164228 0)
(7.90889 -0.143801 -1.34677e-17)
(7.82741 -0.220704 2.29193e-17)
(7.89098 -0.163795 0)
(7.93282 -0.185851 -7.06889e-18)
(7.81987 -0.205818 0)
(7.87161 -0.120855 0)
(7.90667 -0.177644 0)
(7.86577 -0.150374 -2.33451e-17)
(7.04265 0.0262235 3.45e-17)
(6.96014 -0.0479477 -3.4992e-17)
(7.55053 0.190085 -8.73904e-17)
(1.08391 -0.0667156 -1.18205e-16)
(1.03354 -0.00853397 1.09281e-20)
(4.91825 -0.0751273 0)
(4.72344 -0.00685869 0)
(7.00803 0.0421837 -4.10405e-17)
(7.94942 0.193604 5.22721e-17)
(7.35462 0.0473499 -1.55464e-16)
(6.98078 0.103454 0)
(6.97375 0.0746122 0)
(6.86687 -0.0611761 -1.95762e-17)
(7.02187 -0.0609768 0)
(7.02398 -0.179449 7.78978e-18)
(6.82864 -0.259995 -6.88004e-17)
(5.16286 -0.0323824 7.21489e-17)
(7.07324 0.138387 -3.82052e-17)
(7.25553 -0.196789 -7.10204e-18)
(6.99563 -0.280426 -1.56619e-17)
(6.32431 -0.355925 -3.17496e-18)
(6.32088 -0.26551 3.94842e-17)
(6.43758 -0.201527 7.51015e-18)
(7.16942 -0.103936 9.19708e-18)
(7.27714 -0.129662 0)
(7.06522 -0.0228409 -5.90268e-17)
(6.98557 -0.000396738 3.71503e-17)
(7.30333 -0.238707 -4.14111e-18)
(6.98419 0.108193 3.02586e-17)
(7.37926 -0.172078 0)
(6.56563 -0.0715598 2.57104e-17)
(6.43215 -0.122327 -7.14925e-18)
(7.26003 0.15816 7.70855e-18)
(7.36131 0.126547 -3.0223e-18)
(7.04081 0.153452 0)
(6.84797 0.179643 0)
(7.37502 0.0541661 2.58499e-17)
(7.61648 -0.0180258 -8.11614e-18)
(7.46863 -0.129373 0)
(6.77288 0.0293365 0)
(7.59966 -0.0330872 0)
(7.53153 0.0589305 3.48138e-17)
(7.16914 -0.0115572 -3.51661e-17)
(7.37143 0.0696507 -9.91497e-17)
(6.57491 -0.288832 0)
(7.41808 -0.0731302 0)
(7.19462 -0.108407 0)
(7.33182 -0.0409158 0)
(7.85642 -0.119047 0)
(7.70151 -0.118776 0)
(7.88389 0.065853 0)
(8.08791 -0.0799355 0)
(4.75298 -0.0769496 0)
(7.05401 -0.0954827 0)
(4.05647 0.9423 -3.12105e-19)
(6.31205 2.45984 -5.5864e-19)
(3.79593 -0.064042 1.67069e-18)
(6.67647 2.51806 0)
(2.81445 -1.56906 -1.67509e-20)
(2.73524 -1.54326 1.41917e-17)
(7.31237 -4.0925 6.65421e-18)
(6.79423 0.314856 0)
(6.74379 2.18827 0)
(4.20796 -0.889328 -2.08025e-17)
(2.67807 -1.61593 -1.52505e-20)
(3.83762 -0.794897 2.7912e-18)
(3.07457 -0.579634 0)
(2.47159 -5.31813 5.92783e-18)
(7.70296 -1.41807 0)
(5.0677 -4.27559 -9.38997e-20)
(3.75192 -0.815563 3.12996e-18)
(4.0807 -0.210947 4.6011e-21)
(6.26021 -3.98357 -2.54824e-18)
(6.33516 -3.96989 -2.29293e-18)
(4.07452 0.0089146 5.70842e-19)
(4.02634 0.0328062 -7.05688e-19)
(6.73018 0.232591 -8.1779e-17)
(4.00623 -0.131585 0)
(5.58592 -3.82354 -3.03496e-18)
(5.81092 -3.65809 0)
(1.70086 -0.926937 0)
(3.99023 0.685039 -1.44897e-18)
(5.96461 -4.1073 4.6797e-18)
(6.18863 -3.28284 -2.11679e-18)
(6.45237 1.83 0)
(3.7933 -1.51372 2.76125e-18)
(3.77295 -0.513769 0)
(5.96633 -1.32103 3.30891e-18)
(7.04758 -2.28495 -1.33273e-17)
(6.41496 -3.46548 -4.22218e-18)
(6.4099 2.83161 1.86391e-20)
(6.38659 2.23548 1.77136e-18)
(6.36423 2.32573 -2.27818e-18)
(2.65424 -1.20896 0)
(2.70697 -1.41594 7.52289e-20)
(2.98124 -1.52418 -1.82794e-17)
(2.88349 -1.4722 -2.56514e-20)
(6.48092 -2.02117 -7.11666e-18)
(6.11488 -1.86986 5.66186e-18)
(6.76238 -1.92262 0)
(6.23513 2.42244 2.44355e-18)
(5.82406 -4.27822 -2.1211e-18)
(1.78802 0.761554 -5.79756e-17)
(6.17097 2.82318 0)
(3.60613 -1.34727 0)
(7.28512 -3.53178 1.41683e-17)
(6.54449 1.94332 2.19859e-18)
(6.59385 1.98979 5.12501e-19)
(3.60406 -1.25899 0)
(6.51507 2.44722 -6.37917e-20)
(6.48762 2.46293 8.35127e-20)
(3.02159 -1.43625 9.23153e-18)
(3.47841 -1.97669 4.35801e-19)
(3.37308 -2.15509 3.55034e-18)
(3.96821 -1.09292 4.2249e-17)
(3.75494 -1.05607 0)
(3.0942 -0.718648 0)
(3.20466 -0.788129 5.05318e-19)
(5.80523 -3.97545 2.2065e-18)
(4.04389 -0.273249 0)
(4.00238 -0.705883 -6.78921e-19)
(6.87907 -0.41383 2.05892e-17)
(6.46056 2.44866 0)
(6.58363 0.195385 5.53563e-17)
(6.36162 2.11998 0)
(6.40481 2.16729 0)
(6.20096 -4.46634 0)
(0.944022 -0.467654 8.54128e-17)
(6.87583 0.308349 -7.784e-17)
(2.92592 -0.401616 -9.77306e-18)
(4.02958 -0.415219 2.35157e-18)
(4.06729 -0.278588 -1.11531e-18)
(5.81228 -4.11843 -1.31939e-18)
(6.33852 -4.39094 -1.03878e-18)
(6.33679 -4.34559 -3.2062e-18)
(6.2744 2.32896 3.55424e-18)
(4.02087 -0.487495 -3.78926e-18)
(4.0048 -0.629708 1.42113e-18)
(5.97214 -3.94506 -2.12771e-18)
(6.76742 -3.48251 0)
(3.84523 -0.972929 0)
(3.89564 -0.917232 0)
(3.84786 -1.05881 0)
(3.13331 0.443333 -1.72702e-17)
(3.83746 -1.76255 9.02962e-18)
(4.20601 -1.34829 0)
(6.13705 0.116655 -1.66192e-17)
(6.3302 2.31566 -5.75105e-19)
(6.30017 2.25273 -2.05215e-18)
(6.34179 2.25762 -2.31412e-18)
(6.29091 2.31042 -4.5178e-18)
(2.96771 -1.67296 -2.05278e-17)
(5.66852 -4.16743 9.12706e-19)
(5.72456 -4.20173 -1.95525e-18)
(6.37042 -4.32226 4.89033e-18)
(6.38063 -3.67947 0)
(3.91824 -0.642584 2.59599e-18)
(7.42524 -3.22049 -4.40288e-18)
(7.33371 -3.37567 -9.5504e-19)
(7.25918 -2.88218 3.65837e-18)
(3.38914 0.118247 0)
(3.25175 0.355448 -1.71761e-17)
(3.23334 0.149076 0)
(6.45798 -4.40388 -1.78613e-18)
(6.4804 2.38842 9.00673e-20)
(3.07007 -1.94219 -1.36885e-17)
(2.99044 -1.74774 1.81946e-17)
(3.10347 -1.76091 2.20386e-17)
(2.92638 -1.93482 6.42928e-18)
(6.41847 2.38274 1.06125e-18)
(6.46605 2.35919 -1.47796e-18)
(6.44743 2.33815 3.22951e-19)
(6.44625 2.39421 3.814e-19)
(3.98764 0.754175 2.80954e-18)
(3.96056 0.903866 -1.60437e-18)
(6.81425 0.280958 -2.58046e-19)
(6.56248 -0.845474 -2.94235e-17)
(2.89526 -0.737109 -1.98839e-17)
(2.87246 -0.97626 0)
(7.07446 -3.08763 -5.2887e-18)
(7.50902 -0.446978 -3.89211e-17)
(2.85694 -1.35367 5.77348e-18)
(5.83496 -0.85022 -2.04537e-18)
(7.11692 -0.242308 9.12081e-18)
(2.86401 -0.591971 0)
(2.96339 -0.578537 1.88085e-17)
(2.9295 -0.506742 6.74056e-20)
(2.90613 -0.631981 -5.42079e-18)
(3.6081 -0.0793658 3.16659e-19)
(3.60506 -0.257262 0)
(3.39845 -0.0147291 -6.75995e-18)
(6.52337 2.42165 0)
(6.50702 2.40038 0)
(6.55405 2.40462 1.54628e-19)
(3.30864 -0.448165 0)
(3.14342 -0.460382 3.25545e-17)
(3.09302 -0.111277 0)
(3.10921 -0.333779 -3.52106e-17)
(3.16903 -0.183911 0)
(3.42316 0.584603 -6.40192e-18)
(3.66121 0.275765 3.71062e-17)
(6.20604 0.166504 -5.99627e-17)
(6.75097 2.09505 -8.40155e-19)
(6.36327 2.3541 8.32012e-19)
(6.39457 2.37892 -1.71185e-18)
(6.69982 -0.614187 6.13724e-18)
(6.75 -0.396593 0)
(1.11332 0.40924 0)
(2.69528 -0.550413 -8.23198e-18)
(6.8649 -3.18327 0)
(6.53512 -3.3456 -1.26617e-17)
(7.11266 -0.260462 -2.09718e-17)
(7.13727 -0.245168 1.64271e-17)
(7.07053 -0.296709 0)
(6.24528 2.47202 1.25264e-18)
(6.29389 2.53519 6.09309e-19)
(6.71574 -3.74194 4.36349e-19)
(6.36715 -4.40624 0)
(6.42462 -4.4068 2.4445e-18)
(6.36836 -4.45564 2.59539e-18)
(5.26175 0.231581 9.93768e-17)
(6.51453 -0.480096 -5.48985e-17)
(6.53244 -0.597497 0)
(6.6019 -0.407836 -2.40923e-17)
(6.03896 -3.78905 0)
(6.19179 -3.79091 5.16803e-18)
(6.11408 -3.86997 -1.10803e-20)
(6.07669 -3.75287 -4.63529e-18)
(4.24076 -0.357248 0)
(3.99506 -0.126346 -2.11138e-18)
(3.91853 -0.330693 -3.24391e-17)
(4.25355 -0.213406 0)
(6.29053 -3.83686 2.39866e-18)
(6.35687 -3.9223 2.01041e-19)
(6.39104 -3.78264 -1.66663e-18)
(4.01992 0.444278 2.39393e-18)
(3.95934 0.334746 0)
(6.11187 -3.38135 0)
(5.92985 -3.56386 -4.58867e-18)
(3.9547 0.414892 -5.40743e-19)
(3.66187 0.779588 -8.22399e-18)
(4.31407 -0.544508 -5.30481e-19)
(4.06505 -0.655464 1.78771e-17)
(4.21498 -0.676327 -1.13951e-17)
(4.23619 -0.443469 1.03207e-17)
(3.11212 -2.75307 -2.42111e-18)
(6.68157 0.253593 9.9483e-18)
(6.66994 0.224965 0)
(6.88225 0.141141 0)
(6.81621 0.173938 5.61533e-18)
(3.98416 1.16887 0)
(4.02577 1.02934 0)
(2.90772 -0.189933 -2.33596e-17)
(2.89803 -0.0721874 1.63215e-20)
(2.8241 -0.216518 1.07543e-17)
(3.39826 -1.2607 0)
(6.7296 -1.79736 0)
(3.88192 1.63201 -9.13666e-20)
(3.993 1.49311 -1.90079e-18)
(3.93235 0.981687 -1.53381e-18)
(5.51111 -3.91658 0)
(3.17189 -1.19637 9.07867e-18)
(3.25193 -1.06166 1.78773e-17)
(3.03802 -1.15552 0)
(3.57692 -0.515113 0)
(3.82719 -0.343446 4.20004e-17)
(3.66078 -0.308894 -5.16094e-18)
(3.80495 -0.50963 -3.05451e-17)
(3.12699 -1.46489 1.79151e-17)
(3.2902 -1.34671 0)
(3.19323 -1.29755 -1.88092e-17)
(3.25611 -1.47632 0)
(7.60903 -0.394815 1.38931e-17)
(3.70427 -1.41966 0)
(3.5001 -1.28701 0)
(3.67241 -1.22208 0)
(3.51153 -1.44214 1.49534e-17)
(6.72789 -2.4516 0)
(6.96718 -2.32287 -7.04841e-18)
(3.75063 -1.18141 -8.14065e-19)
(3.83092 -1.1037 0)
(3.81886 -1.18424 7.32262e-19)
(3.76846 -1.11067 0)
(6.90951 0.0788577 3.50663e-19)
(6.87401 0.0140384 0)
(6.52695 0.314437 3.26252e-17)
(6.63953 -3.67451 1.74356e-19)
(6.49668 -3.52682 3.85023e-18)
(6.67805 -3.58105 3.35815e-18)
(6.46099 -3.64062 4.19724e-18)
(6.87328 2.06611 0)
(7.2496 0.441628 -2.72429e-17)
(4.54323 -1.54734 1.84719e-17)
(4.62978 -1.2524 -3.4108e-17)
(7.00099 -0.34436 1.69166e-17)
(7.0957 -0.272658 -1.1454e-18)
(7.02035 -0.31695 -1.11095e-17)
(6.86143 1.36019 2.28459e-18)
(4.09801 -0.199342 -3.39841e-17)
(2.09615 -0.194869 0)
(6.10342 -0.469852 -2.30897e-17)
(6.2199 -0.456515 5.30941e-18)
(6.41149 2.90147 -1.17999e-19)
(6.10307 -4.01261 0)
(6.11693 -3.92637 -4.61898e-20)
(6.18662 -3.95175 3.01155e-18)
(6.06496 -3.95747 2.76929e-18)
(4.30737 -1.23418 0)
(4.52487 -0.919651 -5.8912e-18)
(4.3322 -0.971248 0)
(4.53216 -1.16368 3.75033e-17)
(6.90535 0.112694 0)
(6.91467 0.0764907 1.34312e-17)
(6.90335 0.09431 0)
(7.00336 0.0726483 5.23566e-19)
(7.00016 0.0916136 -1.66325e-17)
(7.56939 -0.181168 0)
(7.23482 -0.223254 -4.7395e-18)
(7.37035 -0.221903 4.92341e-18)
(7.41137 -0.179403 0)
(6.64457 0.18224 0)
(6.75679 0.0912936 -6.93589e-17)
(6.72394 0.162188 4.97388e-18)
(6.65965 0.132677 4.28245e-17)
(5.93504 -4.0679 -4.96054e-18)
(5.87092 -3.99292 0)
(5.86035 -4.08135 0)
(5.94783 -4.00841 0)
(6.27308 2.40962 1.26634e-18)
(6.30512 2.43426 -6.99425e-19)
(6.29407 2.37128 1.051e-18)
(2.86915 -1.05794 0)
(2.77801 -1.16307 7.02557e-18)
(2.78548 -1.08178 -7.40486e-18)
(2.87461 -1.15807 -5.68141e-18)
(6.52076 0.209403 -9.22452e-18)
(6.40276 0.239222 3.63978e-18)
(6.46966 0.183106 9.21278e-17)
(2.36134 -0.311166 -2.06319e-17)
(2.10377 -0.0178459 2.36863e-17)
(6.94295 0.147509 0)
(2.1584 -0.199691 -9.8319e-19)
(5.41337 0.108166 -1.19108e-16)
(6.99569 0.0208186 4.71312e-17)
(7.01985 0.0757561 1.99779e-17)
(2.3304 -1.15861 -6.52716e-18)
(2.57472 -1.21593 1.20349e-17)
(7.01146 0.116487 5.85923e-17)
(7.01029 0.084278 6.385e-17)
(7.00897 0.0913898 -2.10317e-17)
(6.95866 0.203209 8.34647e-17)
(7.11912 -2.22297 1.38105e-17)
(7.00324 0.242204 0)
(6.02329 -0.085318 1.55607e-17)
(1.60874 -0.270272 -3.15141e-20)
(2.1646 -0.328882 0)
(6.77992 0.233605 -5.70071e-17)
(3.66424 -1.20548 0)
(7.43234 0.015815 -4.46013e-17)
(6.99971 0.1432 4.38572e-17)
(6.8009 -0.0127098 0)
(7.85412 -0.410889 0)
(7.3367 0.33576 0)
(7.32166 0.408582 3.06134e-17)
(1.72963 0.513374 1.93524e-17)
(7.72727 -0.285202 7.56456e-17)
(7.66358 -0.346879 0)
(7.13778 0.175402 -4.56718e-18)
(6.85308 0.27834 0)
(7.118 -2.36699 7.27339e-18)
(6.06496 -0.0722482 1.38728e-17)
(7.17958 -0.167726 -1.63416e-18)
(7.12132 -0.21671 3.10587e-18)
(7.16212 -0.194921 4.30907e-19)
(7.57204 -0.226351 0)
(6.6599 -0.441604 -6.0814e-18)
(6.63784 -0.553968 8.3909e-18)
(8.09439 -0.220606 3.60689e-17)
(8.1457 -0.135176 -3.66666e-17)
(8.06247 -0.130034 7.98644e-17)
(6.95319 -0.122232 2.54238e-18)
(6.85389 -0.100476 2.4423e-18)
(6.97575 0.180147 2.47224e-17)
(6.9708 0.154644 2.42763e-17)
(7.00056 0.0232596 2.61942e-17)
(7.00306 0.0368445 5.69885e-17)
(6.42707 -0.366783 0)
(3.31185 0.53062 0)
(6.80134 -0.447898 0)
(6.77899 -0.565607 0)
(7.15233 -0.167116 2.30437e-19)
(6.98383 0.256342 -2.5395e-17)
(6.27422 -0.0845213 -8.61974e-18)
(7.00347 0.170726 -4.49455e-17)
(6.99334 0.210807 0)
(6.99247 0.192421 9.66156e-19)
(2.10431 0.317639 0)
(6.93694 0.114812 -1.31477e-17)
(6.94663 0.103633 1.29864e-17)
(7.28298 -3.1739 6.50286e-18)
(7.27599 -2.88779 0)
(7.28943 -2.77056 2.70758e-18)
(7.40008 -0.365545 -6.68288e-17)
(7.16438 -0.0543118 0)
(8.2726 -0.0253902 0)
(6.59959 -0.0597679 -2.59692e-18)
(6.55435 -0.0524951 -1.91161e-17)
(6.85602 -0.0568195 2.68902e-17)
(4.6585 -0.266567 6.3206e-17)
(4.86954 -0.264011 0)
(7.49989 -0.38657 -7.69199e-17)
(7.44496 -0.35967 6.06892e-17)
(8.06621 0.0344139 -3.33017e-17)
(8.16857 -0.116576 0)
(6.03004 -0.159019 0)
(7.0664 -0.00355817 0)
(7.17809 0.387617 1.01097e-17)
(7.15669 0.337896 0)
(8.0659 -0.136146 0)
(8.27005 -0.102939 -2.19795e-17)
(1.70588 0.545819 0)
(7.12321 -0.248859 -9.86355e-19)
(7.25252 0.00987618 0)
(4.63232 -0.743944 -3.04175e-17)
(7.22228 0.121997 4.34355e-20)
(7.23221 0.0802303 7.23032e-18)
(1.00545 -0.0849672 -8.16983e-17)
(3.74336 0.422558 1.51959e-17)
(3.59265 0.605622 -9.48339e-18)
(6.79927 0.211467 5.03361e-17)
(6.99746 0.0536707 -2.43705e-17)
(6.99273 0.0720979 -2.56244e-17)
(5.54021 -1.02639 -2.85889e-17)
(6.49121 2.00829 -1.99008e-18)
(6.16172 0.00813956 -3.46741e-17)
(6.03721 -0.045465 0)
(2.7368 -1.2291 1.23624e-17)
(2.76427 -1.32722 -1.2527e-17)
(6.66454 0.0797596 -4.31738e-19)
(6.55669 -0.000919357 7.30818e-17)
(6.65522 0.0128459 0)
(6.99973 0.0931023 5.26396e-17)
(7.00293 0.125193 1.95298e-18)
(2.54532 0.670227 0)
(6.9659 0.247354 -5.30417e-17)
(6.61076 0.240481 -5.40733e-17)
(6.5789 0.311218 -3.22291e-17)
(6.86655 0.232653 9.79235e-17)
(6.90458 0.233541 -7.04918e-17)
(6.92136 0.19773 -2.819e-17)
(7.29932 0.0557303 -5.48819e-17)
(6.27812 -0.0183568 2.36237e-17)
(6.39317 0.0428072 -5.82604e-17)
(6.17835 -0.178832 -1.34461e-17)
(6.29195 -0.0976718 -8.24245e-17)
(7.52048 0.00906785 0)
(7.67024 0.0753951 -2.92958e-18)
(7.17532 -0.142795 -2.01442e-17)
(7.87289 -0.00479885 5.12119e-17)
(6.58463 2.07526 1.26621e-18)
(6.98055 0.136685 3.73054e-18)
(7.05251 -0.318901 0)
(7.09076 -0.269192 6.01059e-18)
(4.54484 -0.455881 0)
(4.82917 -0.500839 6.23017e-17)
(7.46686 0.185089 -5.05895e-17)
(7.82199 0.15485 -2.34949e-17)
(7.52267 0.115883 -8.56878e-18)
(7.43663 0.13794 5.80912e-18)
(5.67448 -0.124293 0)
(5.48082 -0.159369 0)
(3.47492 -1.54025 -2.07589e-17)
(3.27541 -1.5556 0)
(3.19802 -1.72802 -1.76252e-17)
(2.84086 -1.69403 -1.54619e-17)
(7.01667 0.053502 -7.65669e-18)
(6.73509 0.200597 0)
(6.81464 0.188676 0)
(7.52746 0.0270636 0)
(7.86177 0.0336028 -6.34215e-17)
(4.07818 0.21534 -2.81987e-17)
(4.27142 0.170779 2.38255e-17)
(8.34083 0.0805711 -1.52495e-17)
(8.2089 0.143382 -1.86861e-16)
(8.06688 0.042172 -6.98922e-17)
(7.14483 0.0780896 0)
(7.70648 0.235236 0)
(7.03586 0.0796469 0)
(7.42179 -0.0514024 0)
(7.0279 0.186116 -4.69567e-16)
(4.90931 0.0315847 5.2908e-16)
(7.46145 0.175203 8.74728e-17)
(7.28134 -3.82264 0)
(7.35982 -3.67453 0)
(6.98844 0.0250503 -2.51539e-17)
(6.95236 0.0468122 -5.90277e-17)
(7.02191 0.041727 1.94713e-17)
(6.9372 0.0607172 8.59133e-17)
(7.90125 -0.254145 6.14575e-17)
(5.02667 -0.042765 -4.43991e-17)
(5.19173 -0.104883 -5.68137e-17)
(5.35724 -0.0148186 8.91008e-17)
(6.89494 0.12257 0)
(6.88314 0.145894 0)
(6.85407 0.18038 0)
(6.87514 0.171961 -2.896e-17)
(6.83416 0.213 0)
(7.00136 0.0620946 3.91068e-17)
(7.31568 -0.0730921 5.54535e-17)
(7.0284 -0.126401 -4.72088e-17)
(7.56432 -0.357513 1.0389e-16)
(7.65809 -0.293094 -6.94351e-17)
(7.63853 -0.272682 -6.42484e-17)
(7.61841 -0.256811 0)
(7.44892 -0.271168 2.43848e-17)
(7.51976 -0.295613 -2.43139e-17)
(4.77306 -0.0790421 -1.80347e-17)
(6.91075 -0.0355213 -7.45068e-18)
(7.82265 -0.228485 2.21241e-17)
(5.01126 -0.414778 0)
(5.18251 -0.357989 -2.52641e-17)
(5.38434 -0.361497 -4.35513e-17)
(3.26495 0.474841 8.72751e-18)
(3.28757 0.535092 7.69156e-18)
(6.40096 0.101614 2.86834e-17)
(6.30978 0.131165 0)
(3.47713 -0.884468 -3.14688e-18)
(3.39361 -1.05434 0)
(7.69621 -0.100588 -1.36664e-17)
(7.85043 0.0302788 0)
(7.77688 0.109627 2.67649e-18)
(3.75049 0.884337 3.8343e-18)
(3.70914 0.876871 3.58847e-20)
(5.10716 -3.17808 4.37101e-19)
(5.1229 -3.26113 -3.9851e-19)
(2.64538 -0.918286 0)
(4.03775 1.8976 -1.15592e-18)
(7.9592 0.165711 -6.99362e-20)
(5.9111 1.01904 0)
(6.52798 0.912684 8.19669e-20)
(6.21102 0.847384 -2.52817e-19)
(2.541 0.432394 0)
(5.97125 -2.251 -3.40496e-19)
(9.51473 1.11705 -1.03406e-18)
(8.03227 0.403826 2.93568e-19)
(9.02997 -0.32283 2.3501e-18)
(6.5288 3.25678 -9.65198e-20)
(2.6528 0.454335 4.15403e-18)
(5.53585 -4.3224 9.71911e-19)
(6.88545 -4.57439 0)
(3.66753 -0.751306 0)
(9.44043 1.09854 0)
(5.47333 -4.23517 0)
(5.53956 -4.2709 0)
(6.10651 2.11752 5.21256e-20)
(6.11066 2.13779 0)
(6.47589 0.595943 1.57354e-19)
(7.12584 0.809267 2.53424e-20)
(7.12015 0.85112 -2.84187e-20)
(5.94528 0.943668 1.68246e-19)
(7.43492 -1.19062 1.43047e-19)
(7.46434 -1.27723 7.24276e-20)
(5.93733 -4.61372 1.01737e-18)
(6.25029 0.83365 -1.43293e-20)
(6.31626 0.797016 0)
(7.56352 1.00569 1.68252e-19)
(7.47156 0.743842 -8.12928e-21)
(7.47296 0.781118 -2.3525e-19)
(7.17341 0.855474 0)
(6.58759 -2.16254 0)
(6.58476 -2.10716 -3.70342e-21)
(3.43271 -2.25908 2.0476e-18)
(6.38578 1.00876 1.11326e-19)
(6.38136 0.977479 -2.96131e-20)
(5.41163 -3.93222 0)
(1.54294 -2.0553 3.42922e-17)
(3.92074 1.76099 8.00831e-19)
(3.97325 1.79017 -1.56301e-20)
(2.56409 0.0231728 4.42285e-18)
(4.39992 -1.7295 -1.849e-17)
(6.02571 2.56056 5.16077e-19)
(8.68431 0.807957 3.9171e-19)
(6.49874 -4.61349 -2.16157e-19)
(2.36791 -0.965786 -1.58135e-18)
(6.64895 2.25121 0)
(6.74762 2.461 -3.94213e-20)
(6.12881 -2.4228 1.45985e-19)
(3.45286 1.40189 -1.90932e-20)
(6.83947 -4.52458 -2.71906e-19)
(6.86212 -4.51716 7.20228e-19)
(6.11498 -1.55949 0)
(7.26635 -1.45565 0)
(7.07647 -1.72076 -1.51308e-19)
(6.93051 2.8922 -2.37915e-19)
(7.26479 0.588735 -1.05418e-19)
(7.34544 -1.57846 9.27007e-21)
(6.32694 2.30941 0)
(4.81683 0.866145 0)
(8.43759 0.24675 0)
(6.00826 -2.37786 -9.71053e-20)
(2.81998 -3.43314 -2.49845e-20)
(2.93135 -3.21243 1.32675e-18)
(6.80909 -0.795901 0)
(6.82216 -0.897754 9.33975e-18)
(6.247 -4.61434 -1.01392e-18)
(6.88868 2.70136 -1.14903e-19)
(3.2849 -1.87451 1.28122e-18)
(7.90214 0.702187 -5.07076e-19)
(5.93149 -4.67234 0)
(6.47057 3.3001 0)
(6.40877 3.26254 8.36216e-21)
(6.07284 2.61137 0)
(5.09729 -3.29231 -4.47512e-18)
(6.56363 3.68141 0)
(6.71539 2.78615 4.20193e-20)
(6.63641 0.974244 0)
(4.14441 0.959462 5.71747e-19)
(4.12087 0.919946 2.81182e-19)
(6.14165 0.631132 4.84957e-19)
(7.8111 0.737149 0)
(7.79889 0.779344 0)
(7.88504 0.747839 5.00426e-19)
(5.69132 -2.77842 9.16197e-18)
(6.93891 1.0615 1.25201e-21)
(8.23018 -0.520062 0)
(8.20476 -0.437001 -1.04629e-19)
(2.33925 -2.01984 5.38274e-18)
(6.86894 0.822615 -1.49855e-20)
(6.88993 0.851176 0)
(2.71611 -0.138868 6.48019e-18)
(2.77861 0.028737 0)
(8.46955 -0.225702 -8.06989e-19)
(8.45841 -0.173265 -5.30645e-19)
(6.21944 3.30103 -3.8678e-21)
(7.00442 -4.55053 3.1318e-18)
(3.7615 -0.885186 1.68273e-18)
(6.78648 2.34469 1.24769e-20)
(6.73196 2.66901 -1.5902e-19)
(6.36631 2.44908 1.57369e-18)
(7.82893 -0.794105 -6.39014e-21)
(2.68166 -4.4822 6.32623e-18)
(7.04041 0.861426 -1.64214e-20)
(7.04057 0.825391 9.29646e-21)
(7.57237 3.16205 3.76293e-19)
(7.27889 -1.60406 0)
(7.13168 -1.67293 8.40151e-20)
(5.73837 -4.62286 1.43157e-18)
(1.61142 -1.37216 -6.81952e-18)
(4.22924 1.47436 2.14705e-18)
(8.2902 -0.837835 9.18459e-19)
(5.58745 -2.67149 -2.25526e-19)
(5.59849 -2.74198 5.54758e-19)
(4.07501 1.60055 -9.06116e-19)
(4.01183 1.74242 -1.20369e-18)
(7.36961 -1.50734 -8.21927e-21)
(7.34716 -1.45839 6.41039e-20)
(7.43784 -4.0912 0)
(8.00329 -5.01753 0)
(7.70369 -0.72383 2.68534e-19)
(8.14574 -0.433852 8.19002e-19)
(8.19168 0.917137 0)
(3.69617 0.969006 -3.60668e-18)
(7.40108 0.946978 0)
(7.8108 -3.20918 9.82513e-19)
(2.41059 -2.13011 1.96739e-17)
(7.77512 -4.33086 0)
(6.46506 2.26415 -6.28678e-20)
(5.43558 -4.2528 -3.6148e-19)
(5.44404 -4.27307 1.50539e-18)
(6.24475 2.3595 0)
(6.2779 2.3516 -3.76457e-19)
(6.78162 2.24465 0)
(4.42202 -0.0550646 0)
(6.41592 0.535258 -9.76787e-20)
(9.15695 -2.7208 1.53605e-18)
(6.22023 -2.40616 0)
(6.75832 -2.73306 0)
(6.59328 0.783072 -8.83491e-20)
(7.00402 -4.17752 1.22438e-19)
(6.42366 -0.855301 1.56287e-17)
(6.93169 -1.22191 3.10116e-20)
(7.54246 -4.73045 -2.0648e-18)
(7.5959 -4.70456 0)
(6.01767 1.24956 0)
(2.19088 -4.1062 9.96356e-18)
(3.38892 0.648526 -1.79166e-18)
(6.72306 3.39885 2.0623e-19)
(6.3145 -2.08749 1.0333e-19)
(6.08712 3.14236 0)
(4.1837 1.33035 8.09822e-19)
(4.24973 1.24375 1.54762e-18)
(7.24914 -0.747209 -3.66689e-19)
(5.83543 1.03808 3.10961e-19)
(7.01345 -1.49363 -1.01778e-20)
(7.01935 -1.5676 1.56856e-19)
(7.73386 1.05235 -1.98505e-19)
(6.51528 0.56049 -1.7008e-19)
(6.89155 0.758931 0)
(6.97875 0.753948 8.30276e-21)
(5.03152 -3.28508 0)
(4.84861 -3.32674 0)
(3.82382 -0.725865 0)
(2.7052 0.568509 -3.40159e-18)
(2.66726 0.532687 0)
(2.67826 0.679433 0)
(7.41684 -0.241421 1.03848e-19)
(6.86368 2.66597 3.95414e-20)
(7.57727 3.21601 2.15169e-19)
(3.90955 -1.53125 0)
(3.84989 -1.55149 7.20825e-19)
(4.84805 0.83443 0)
(6.62206 2.28742 8.83908e-21)
(4.23935 1.7046 0)
(2.56914 -0.916259 4.49096e-18)
(4.64333 -0.0628539 2.20612e-18)
(4.70189 -0.0768165 -9.47446e-20)
(7.89848 0.576506 -4.82852e-19)
(6.81109 0.642947 7.98696e-18)
(6.68553 2.72397 2.98643e-19)
(4.42469 0.0748808 0)
(4.44713 0.0117738 0)
(7.52297 1.42322 -3.85557e-20)
(6.56839 2.28818 0)
(6.58908 -4.5777 0)
(6.35472 -0.534962 -7.04505e-21)
(6.75224 -4.56481 -1.01858e-18)
(6.26981 0.93542 -1.18172e-19)
(6.26148 0.899762 1.79167e-19)
(3.66875 -0.67116 -9.91391e-19)
(6.62746 -1.56938 3.08772e-20)
(7.02859 -5.01042 -4.80547e-19)
(6.63187 2.20257 2.10462e-20)
(6.61202 -4.4988 5.53313e-19)
(7.09507 0.391848 -1.12351e-20)
(7.03464 0.393246 -4.41189e-21)
(4.15009 1.6905 -1.69554e-18)
(4.45105 0.798508 0)
(4.44771 0.85515 2.64693e-21)
(4.83895 -4.53513 6.57831e-19)
(6.49043 0.386813 0)
(6.45054 2.14895 1.53058e-19)
(5.98501 -4.63423 0)
(5.98323 -4.66368 1.0438e-18)
(4.28273 0.593336 -2.55116e-19)
(6.7327 0.851972 0)
(6.80632 0.867058 0)
(6.57549 2.14099 1.55876e-20)
(6.73363 2.25156 3.70933e-21)
(6.77858 2.2884 -1.14486e-20)
(4.72296 -5.03086 -3.46408e-19)
(8.10992 0.509963 -3.79483e-19)
(8.19544 0.506091 0)
(9.09258 -2.76456 3.09942e-18)
(7.22784 -1.57394 -9.9531e-20)
(7.22479 -1.50037 -4.5665e-20)
(7.14172 -1.6131 2.27684e-19)
(5.88012 0.44215 8.32588e-20)
(5.88024 0.499223 0)
(6.17689 0.304264 0)
(6.15734 0.258798 0)
(7.43812 -0.72027 0)
(7.47524 -0.688067 0)
(8.5373 0.987717 5.84845e-19)
(5.70792 3.3424 1.61104e-19)
(6.81571 2.89999 2.21709e-19)
(6.86391 2.87961 0)
(7.36111 -4.22078 4.52093e-18)
(6.01136 -0.349102 0)
(7.77544 -4.91699 0)
(4.45698 0.461677 8.41085e-19)
(6.57076 -4.54166 -6.34019e-19)
(6.50304 -4.56364 1.34892e-18)
(7.74675 -4.67591 3.55245e-19)
(6.10445 -1.72854 3.76122e-19)
(7.07668 -4.71474 0)
(6.54328 2.1747 3.58585e-20)
(6.50027 2.13701 0)
(8.18762 -1.8038 -5.38811e-19)
(8.13927 -1.13554 -8.90659e-19)
(6.93711 0.915742 6.02835e-21)
(4.32778 -0.162631 0)
(7.24348 -4.8713 8.07555e-19)
(5.87594 2.72269 0)
(5.80716 2.70928 2.33051e-18)
(6.60577 -4.60538 -1.57366e-19)
(4.59401 0.235538 1.53076e-18)
(8.21942 0.99082 0)
(1.7082 -1.75111 0)
(6.51646 1.6531 0)
(6.43758 1.7506 0)
(6.19982 -1.73196 5.45562e-19)
(6.632 1.02118 2.50995e-20)
(6.56118 1.01441 -9.26289e-21)
(6.58752 2.5567 4.21365e-20)
(6.55156 2.58191 -1.1662e-20)
(6.77391 0.548415 0)
(6.19726 2.40155 -2.53293e-18)
(8.91166 0.593782 0)
(8.7944 0.584005 1.54175e-18)
(6.14081 0.892237 0)
(6.16591 2.89938 0)
(6.19869 3.03316 2.97158e-20)
(6.92211 -1.06773 -1.62234e-20)
(6.64415 3.01589 -1.00211e-19)
(6.62324 3.15368 0)
(6.57035 -1.41338 -2.22708e-19)
(7.92946 -0.916472 2.42839e-19)
(8.04944 -0.810413 6.42591e-19)
(6.03372 2.16508 -1.93427e-19)
(6.08648 2.14931 0)
(7.55802 0.736851 -8.46183e-21)
(8.476 0.806295 -3.57076e-20)
(8.48109 0.869166 3.31821e-20)
(6.42662 -1.66579 -3.25508e-19)
(6.33878 -1.76706 0)
(2.11312 -1.13247 0)
(5.69513 -4.41325 -1.21429e-18)
(5.59317 -4.38984 1.41606e-18)
(6.95596 -1.81139 -4.08901e-20)
(2.91129 0.507772 0)
(6.87725 2.74419 -7.69851e-21)
(6.84286 2.75638 1.00574e-19)
(5.27467 -4.19628 0)
(4.62527 -3.67914 -3.41097e-18)
(6.54035 -1.65261 -2.46087e-20)
(6.56891 -1.57648 9.63225e-20)
(6.46027 -1.63483 2.85711e-19)
(4.09548 0.533301 2.48504e-18)
(4.03419 0.644141 1.41271e-18)
(6.63909 -4.46662 1.85987e-18)
(7.63625 0.432336 2.67076e-19)
(6.80218 0.474085 -4.84933e-21)
(6.51246 -4.53976 0)
(6.48791 -4.52684 0)
(6.54716 -4.52823 0)
(2.97358 -3.04429 1.15182e-18)
(3.00938 -3.09458 3.25386e-18)
(5.22672 -1.23266 0)
(6.53435 -1.20294 -8.98273e-20)
(9.01232 -0.0367819 -2.66157e-19)
(9.0435 -0.0714819 0)
(6.04487 -1.05227 -4.16736e-19)
(6.05889 -1.1212 2.69493e-19)
(6.96322 -4.56043 -2.08153e-18)
(6.91758 -4.53579 1.82998e-18)
(6.99239 -4.58896 0)
(4.31557 1.01948 9.68979e-19)
(4.30714 1.12838 7.35259e-19)
(2.18721 -1.80234 0)
(6.69937 -4.54712 -1.27525e-18)
(6.85088 3.08566 -4.73817e-20)
(6.00906 2.2767 3.89546e-18)
(5.76872 -4.56038 1.12154e-18)
(5.77274 -4.58959 0)
(2.65325 -3.30952 -8.11917e-18)
(8.32223 -0.618008 9.25701e-19)
(8.02184 0.170211 6.68601e-19)
(8.14964 0.143587 2.01139e-19)
(6.32836 0.86384 -2.66971e-19)
(2.60235 -0.114646 -6.40762e-18)
(6.36422 3.07107 0)
(6.45117 3.07084 0)
(6.6757 -0.70525 -1.14529e-17)
(6.73069 -0.79789 0)
(7.18085 -3.53137 0)
(8.34404 -0.315667 -8.81037e-19)
(8.31829 -0.246568 1.31376e-18)
(8.07536 -1.05408 0)
(8.00679 -1.02674 -3.15776e-19)