/*--------------------------------*- C++ -*----------------------------------*\
  =========                 |
  \\      /  F ield         | OpenFOAM: The Open Source CFD Toolbox
   \\    /   O peration     | Website:  https://openfoam.org
    \\  /    A nd           | Version:  6
     \\/     M anipulation  |
\*---------------------------------------------------------------------------*/
FoamFile
{
    version     2.0;
    format      ascii;
    class       volScalarField;
    location    "300";
    object      nut;
}
// * * * * * * * * * * * * * * * * * * * * * * * * * * * * * * * * * * * * * //

dimensions      [0 2 -1 0 0 0 0];

internalField   nonuniform List<scalar> 
29884
(
0.277345
0.226214
0.122035
0.155998
0.156362
0.129662
0.196722
0.264723
0.213189
0.141142
0.153466
0.141699
0.153037
0.287695
0.280623
0.191641
0.288452
0.265951
0.279615
0.173316
0.277032
0.118569
0.142519
0.140648
0.144297
0.155084
0.195606
0.217542
0.150101
0.254419
0.148708
0.163076
0.193511
0.185313
0.143721
0.147355
0.250341
0.166283
0.17944
0.187027
0.232197
0.184865
0.176189
0.200873
0.183841
0.166973
0.174673
0.175409
0.136695
0.170849
0.167705
0.174285
0.193491
0.276673
0.264315
0.268829
0.186958
0.283024
0.261596
0.265724
0.197101
0.18887
0.135209
0.171093
0.166614
0.172782
0.280744
0.203286
0.303526
0.2114
0.141241
0.149593
0.143867
0.109385
0.319273
0.280407
0.232536
0.229718
0.224423
0.211783
0.179409
0.19728
0.121554
0.142151
0.124754
0.0969148
0.148807
0.158041
0.141514
0.0713801
0.145929
0.156156
0.100172
0.0626612
0.151425
0.000472486
0.139741
0.139781
0.149771
0.0655297
0.139693
0.139141
0.170554
0.178013
0.154293
0.195148
0.0775518
0.0760188
0.153361
0.13899
0.162221
0.00017419
0.138716
0.125808
0.143836
0.141854
0.149371
0.115327
0.147163
0.136675
0.139782
0.140879
0.160739
0.139812
0.131151
0.26339
0.226154
0.204886
0.302017
0.147327
0.142666
0.146875
0.253233
0.236184
0.135575
0.148688
0.165715
0.152833
0.163931
0.164066
0.15615
0.161487
0.172738
0.156048
0.16977
0.172926
0.159125
0.16517
0.178328
0.1737
0.171223
0.0943574
0.0826072
0.183597
0.249757
0.216335
0.198944
0.174366
0.229568
0.20107
0.18834
0.155518
0.15367
0.17237
0.000239504
0.000235839
0.204028
0.160256
0.139306
0.139782
0.212126
0.138983
0.13883
0.123475
0.127342
0.151337
0.143651
0.188618
0.142531
0.155504
0.145421
0.128747
0.130921
0.13484
0.125213
0.136674
0.139548
0.139178
0.155296
0.149806
0.156124
0.141005
0.136297
0.143673
0.14645
0.146458
0.14095
0.146842
0.151918
0.149828
0.218006
0.177049
0.153637
0.142272
0.149939
0.135933
0.148451
0.133925
0.144434
0.187661
0.17615
0.216737
0.220203
0.194118
0.257149
0.0613429
0.100454
0.0559834
0.112626
0.0388384
0.0369131
0.112834
0.137341
0.119966
0.0847394
0.0347187
0.077528
0.05343
0.0136716
0.0883655
0.0804083
0.0717152
0.0807834
0.0877517
0.0926635
0.0752713
0.0716099
0.137845
0.117937
0.0479694
0.0628738
0.000695399
0.0597792
0.0655969
0.0851875
0.123738
0.085151
0.0651703
0.109476
0.109591
0.0952534
0.0763457
0.114832
0.111471
0.0369587
0.0370062
0.0439349
0.041347
0.108838
0.107255
0.109289
0.102536
0.0509042
0.00129581
0.0811932
0.0734104
0.110211
0.123209
0.122807
0.0719293
0.0849172
0.0866015
0.0467536
0.0700759
0.0636902
0.0761564
0.0709058
0.0535244
0.056865
0.0567985
0.121374
0.0856381
0.129835
0.0885446
0.137965
0.117079
0.116847
0.0742923
0.000203963
0.137571
0.0480551
0.0812665
0.0804324
0.0538507
0.087745
0.0880456
0.10853
0.0821465
0.0844908
0.0696291
0.103065
0.0819258
0.083548
0.0837196
0.052963
0.0593102
0.07496
0.131228
0.111296
0.112291
0.113027
0.110424
0.0417771
0.0435531
0.0458073
0.0919814
0.0939528
0.0790195
0.109503
0.110096
0.109288
0.0631194
0.0578144
0.0579988
0.0962298
0.0873446
0.0407714
0.0418289
0.0438914
0.0389238
0.1116
0.113219
0.113415
0.111742
0.0589248
0.0565725
0.137547
0.105029
0.04719
0.0454282
0.106988
0.122719
0.0418847
0.111664
0.136818
0.0460483
0.0499803
0.0482462
0.0476746
0.0716384
0.0708218
0.0646843
0.0848042
0.085801
0.0831954
0.0619497
0.0564132
0.053486
0.0546676
0.0570313
0.0627914
0.0732083
0.132309
0.121491
0.110073
0.110367
0.120695
0.133033
0.000421763
0.0398403
0.104292
0.0977872
0.13789
0.144743
0.130621
0.0996849
0.0947552
0.105503
0.0898261
0.0933099
0.0883621
0.116935
0.126762
0.122679
0.131422
0.0763052
0.0853254
0.0805887
0.0803519
0.0886303
0.0846366
0.0831243
0.0907791
0.0908232
0.0942928
0.0953309
0.0632869
0.0619153
0.082244
0.0712373
0.0827891
0.0704041
0.0920365
0.0843587
0.0877338
0.0893268
0.0461163
0.137072
0.138222
0.139269
0.138519
0.0571864
0.0594179
0.0470281
0.0462619
0.0442968
0.0587263
0.110256
0.0477314
0.0550696
0.0550484
0.0428316
0.0526288
0.0559051
0.0498364
0.0712705
0.0790076
0.0733139
0.0758814
0.0495929
0.0546662
0.0524931
0.0516528
0.129866
0.0638191
0.0611445
0.0658222
0.0597104
0.0960106
0.101348
0.0808395
0.0828845
0.0833704
0.0802905
0.150806
0.149458
0.135285
0.102878
0.0984758
0.102704
0.0976281
0.122113
0.137933
0.075155
0.0847753
0.131298
0.14536
0.139603
0.130367
0.120522
0.00551298
0.12396
0.125418
0.0736941
0.0778213
0.0802062
0.0835305
0.0754157
0.0811974
0.0901475
0.0859823
0.0857342
0.137823
0.137643
0.137901
0.139459
0.139386
0.16536
0.151345
0.157375
0.158869
0.140222
0.144116
0.142107
0.142003
0.0639149
0.0603599
0.0586772
0.0650871
0.103921
0.10267
0.106547
0.0442891
0.0415674
0.0415806
0.0440035
0.136696
0.134495
0.13595
0.000817769
0.00413149
0.138492
0.0101574
0.119527
0.139523
0.138642
0.00100499
0.00150313
0.138864
0.138936
0.139056
0.138556
0.109171
0.138171
0.11925
0.000307737
0.000382028
0.137176
0.0745482
0.22979
0.139045
0.255035
0.126685
0.14089
0.138956
0.000872765
0.141069
0.13383
0.140369
0.137621
0.104841
0.119575
0.139202
0.125072
0.136278
0.143446
0.129575
0.124467
0.170045
0.210033
0.239837
0.115144
0.113842
0.138735
0.138792
0.139661
0.139416
0.129937
0.00857761
0.128609
0.121991
0.112911
0.138729
0.119945
0.13881
0.138756
0.138731
0.00267066
0.138251
0.138461
0.109354
0.10959
0.109486
0.123119
0.24343
0.209726
0.128863
0.124725
0.131977
0.101621
0.106925
0.127946
0.128232
0.18468
0.203785
0.128075
0.251283
0.138121
0.138259
0.252636
0.20707
0.000874411
0.127916
0.260554
0.0958343
0.141876
0.143034
0.000322626
0.075609
0.0692543
0.137338
0.139349
0.139123
0.110269
0.121424
0.130978
0.129091
0.03945
0.0394052
0.143558
0.140982
0.144472
0.139288
0.13901
0.00135631
0.138571
0.137104
0.135947
0.137687
0.137892
0.138096
0.183968
0.133036
0.135902
0.129827
0.132468
0.160233
0.166126
0.199356
0.1773
0.121359
0.137422
0.13415
0.14181
0.114321
0.113306
0.145987
0.160096
0.150263
0.146895
0.122824
0.1191
0.0560056
0.0514742
0.0476807
0.038542
0.138939
0.140344
0.141823
0.253511
0.193417
0.0866805
0.0930433
0.201312
0.172583
0.197279
0.145402
0.159208
0.153269
0.164054
0.234631
0.189164
0.181131
0.111334
0.110777
0.138667
0.138463
0.139411
0.138158
0.15654
0.111109
0.11444
0.118081
0.137464
0.138052
0.137423
0.137523
0.137126
0.139492
0.16161
0.152984
0.13224
0.139094
0.141879
0.144293
0.13482
0.135628
0.211738
0.266881
0.236812
0.109055
0.11346
0.115845
0.00626731
0.00686518
0.135813
0.133262
0.0644281
0.0600524
0.165991
0.168874
0.162195
0.0454017
0.0433281
0.102029
0.101
0.0372732
0.0539544
0.0874333
0.127002
0.125938
0.127005
0.028451
0.117366
0.00785744
0.0845572
0.0361852
0.0582519
0.0338824
0.0308049
0.119115
0.0634212
0.0108707
0.031325
0.0320677
0.0980486
0.0967533
0.124009
0.11539
0.115829
0.126638
0.0976775
0.0962118
0.0530548
0.126824
0.126323
0.103261
0.1063
0.106199
0.114697
0.111009
0.111423
0.0662498
0.127868
0.127602
0.0385757
0.00342788
0.0490179
0.0516728
0.0320786
0.094605
0.0940729
0.0495587
0.0919132
0.0259143
0.0816323
0.0737963
0.115411
0.0140141
0.116521
0.116841
0.119651
0.100297
0.103756
0.0575903
0.111089
0.0978702
0.093013
0.103017
0.0659726
0.11638
0.0295178
0.0354691
0.107094
0.0989095
0.074055
0.0636353
0.0581632
0.0900654
0.0519709
0.0580552
0.060245
0.0917744
0.0016564
0.0430672
0.0679389
0.125371
0.0666621
0.0648371
0.125601
0.0935042
0.0940492
0.0910416
0.00163811
0.121415
0.0744947
0.0759004
0.0235568
0.120472
0.120427
0.0397955
0.0414453
0.0642205
0.0652675
0.0617512
0.118503
0.0740838
0.0759461
0.070152
0.10433
0.0883978
0.00984849
0.117819
0.117657
0.0318707
0.0994235
0.102611
0.0408773
0.00161247
0.0687654
0.0709133
0.113383
0.112748
0.058808
0.0544539
0.0976512
0.0985999
0.078428
0.0190599
0.0929658
0.0785506
0.075779
0.0420822
0.108563
0.0702516
0.00250546
0.0527234
0.0869469
0.0289472
0.0286328
0.0950527
0.094952
0.118953
0.0962164
0.124105
0.0188587
0.103236
0.106072
0.124109
0.113082
0.0788526
0.109331
0.108574
0.106484
0.129627
0.00840028
0.0209567
0.0490075
0.115389
0.0687087
0.0672356
0.0716465
0.10519
0.126172
0.106311
0.105662
0.0965449
0.12343
0.119786
0.118143
0.0991632
0.0954145
0.0746947
0.0354095
0.0340086
0.0333474
0.103173
0.0652805
0.0305863
0.0895978
0.0874328
0.104732
0.0811426
0.0688135
0.0341956
0.105154
0.106894
0.0901958
0.135854
0.107981
0.0946822
0.0967384
0.105295
0.0829604
0.100085
0.121133
0.112256
0.127694
0.12744
0.0612879
0.113318
0.0616997
0.0842282
0.104739
0.114149
0.115174
0.0624603
0.0869212
0.0857164
0.070575
0.135038
0.0895876
0.055585
0.0550746
0.0788154
0.122878
0.121988
0.0884523
0.0810143
0.0789008
0.0574247
0.0817401
0.0771377
0.0208943
0.100996
0.101388
0.102735
0.124264
0.124278
0.124327
0.124264
0.100534
0.0996094
0.0561435
0.0622546
0.061298
0.0602502
0.112963
0.123522
0.030089
0.0901176
0.100332
0.0944497
0.0419932
0.118929
0.123652
0.0867118
0.089361
0.0683373
0.0751824
0.120312
0.0940417
0.0626278
0.0859897
0.0863833
0.100205
0.100014
0.0741029
0.00545616
0.126238
0.124551
0.118118
0.125898
0.126705
0.0792978
0.0805532
0.120247
0.103304
0.0378621
0.0456205
0.127284
0.0779469
0.0715088
0.110313
0.0630607
0.0591754
0.114883
0.0838123
0.0802932
0.0965883
0.0965562
0.103011
0.0613834
0.0607749
0.115831
0.116345
0.0152909
0.0399739
0.033667
0.106247
0.0436791
0.0630258
0.0639816
0.0251038
0.0206433
0.114374
0.114187
0.115441
0.0671896
0.0623374
0.107346
0.0996179
0.119454
0.0960525
0.0947503
0.0991504
0.037515
0.0390098
0.108089
0.116539
0.0372142
0.0354144
0.122438
0.122102
0.118635
0.117993
0.119501
0.076564
0.0755173
0.0121219
0.109246
0.0549714
0.105712
0.0432481
0.0432218
0.0189001
0.070533
0.0848031
0.0796296
0.126896
0.0343584
0.0951033
0.0963564
0.115771
0.11036
0.0992486
0.0701854
0.0715994
0.0781111
0.0805586
0.0999887
0.0994256
0.0979982
0.110611
0.113731
0.0854186
0.0398499
0.0474188
0.114422
0.0645498
0.0651991
0.0996101
0.10095
0.0888393
0.074043
0.0756781
0.107846
0.107632
0.119257
0.119613
0.118486
0.120428
0.121546
0.0768672
0.123325
0.0140671
0.0614408
0.0678672
0.0499662
0.0504604
0.0944675
0.114722
0.102379
0.106386
0.107793
0.10769
0.107963
0.109065
0.106864
0.0957288
0.0935476
0.0331365
0.0801278
0.0680709
0.119279
0.119721
0.118453
0.00915303
0.118643
0.106229
0.103491
0.117895
0.117063
0.118006
0.115449
0.116841
0.0562873
0.0597277
0.0586336
0.0572812
0.0554099
0.0512524
0.0643871
0.0938945
0.0932621
0.093347
0.110404
0.0884454
0.0302365
0.0582295
0.0530207
0.0670209
0.0639981
0.0460119
0.105844
0.103495
0.104208
0.071739
0.107239
0.10427
0.105383
0.0958609
0.0741739
0.0712935
0.0738885
0.0875836
0.0851789
0.0891626
0.082942
0.0647813
0.123625
0.123746
0.105
0.0424717
0.126558
0.126375
0.126128
0.0769545
0.00108886
0.117475
0.0731891
0.0704369
0.0130235
0.000391521
0.102053
0.101493
0.107816
0.0962033
0.0975123
0.0771537
0.0924981
0.0821388
0.112619
0.0302106
0.0737928
0.0735751
0.0762964
0.0703133
0.100587
0.0990968
0.101711
0.118053
0.118781
0.000710473
0.0874236
0.0844002
0.100652
0.103315
0.0987158
0.000801419
0.000836593
0.0915909
0.0520945
0.0446634
0.0709981
0.0751638
0.0743424
0.0716127
0.0875831
0.0674732
0.0644732
0.113718
0.000636417
0.123214
0.123386
0.0772869
0.0760639
0.114397
0.0311711
0.11728
0.11565
0.0973444
0.0977291
0.0558865
0.0838923
0.0843717
0.0848575
0.111404
0.111485
0.124024
0.0859317
0.108103
0.051871
0.00197681
0.0427511
0.113151
0.000583621
0.0731695
0.0931872
0.0874079
0.0277635
0.090554
0.0885394
0.105419
0.107642
0.0858999
0.0814622
0.0563481
0.0570727
0.0536281
0.0744311
0.0756389
0.0738921
0.127149
0.126877
0.00105251
0.0252735
0.000512549
0.106584
0.0254748
0.135683
0.135622
0.135967
0.13543
0.118157
0.0913856
0.0903742
0.13744
0.137762
0.106544
0.0756499
0.0741339
0.0738008
0.0644542
0.106915
0.120574
0.122226
0.092466
0.0882011
0.10968
0.106677
0.108181
0.000542995
0.0751352
0.0758907
0.0777386
0.0734474
0.127017
0.126808
0.0329007
0.0920154
0.0937249
0.127904
0.107688
0.108734
0.103283
0.063864
0.0611309
0.0659672
0.0774158
0.076909
0.127876
0.117785
0.0554132
0.0535024
0.113569
0.114829
0.09077
0.0909433
0.0916687
0.0900312
0.124472
0.124453
0.10882
0.114147
0.114346
0.115237
0.0978582
0.0954481
0.000292483
0.0708486
0.0737919
0.0472045
0.0436936
0.000435375
0.000545366
0.000488801
0.0391034
0.0385078
0.0353442
0.0357084
0.100039
0.10207
0.0975826
0.11637
0.0384222
0.0515468
0.0508119
0.0547466
0.11192
0.109419
0.112599
0.109415
0.000435349
0.000762026
0.000622666
0.00122298
0.00871625
0.0298958
0.0766067
0.0743758
0.00110347
0.087893
0.0251894
0.0905741
0.0902288
0.0931885
0.0908436
0.0910921
0.0901635
0.10563
0.107181
0.104501
0.102628
0.124171
0.10066
0.104736
0.0990782
0.0797842
0.0815935
0.076151
0.11668
0.10674
0.111461
0.0928764
0.0939625
0.094012
0.124038
0.123151
0.123122
0.122505
0.0651198
0.0694358
0.121929
0.12218
0.121551
0.122342
0.000403209
0.000683404
0.08988
0.0899381
0.0893665
0.0903804
0.073108
0.119168
0.119564
0.11841
0.0903406
0.091892
0.0922601
0.089826
0.108906
0.109485
0.107561
0.120701
0.0799862
0.112805
0.113109
0.111961
0.114041
0.0779099
0.0839058
0.112795
0.113775
0.118994
0.117583
0.0518163
0.127988
0.0707739
0.0678652
0.105427
0.000348865
0.103087
0.117761
0.119559
0.120173
0.119018
0.0807308
0.0817556
0.0166686
0.0898461
0.0889531
0.0921436
0.0809658
0.0842603
0.0767789
0.0919557
0.0961379
0.0952848
0.0212696
0.0214325
0.0756933
0.0763333
0.115789
0.115499
0.116705
0.000326044
0.0563598
0.000479255
0.112681
0.114816
0.114059
0.114227
0.114349
0.00235674
0.0701237
0.0727865
0.0710269
0.109228
0.106934
0.109171
0.107749
0.109041
0.108047
0.10682
0.110219
0.0420406
0.0389983
0.0410023
0.0396683
0.100528
0.0961878
0.100725
0.104895
0.00113846
0.0219648
0.0886504
0.0886344
0.0879374
0.0891419
0.104239
0.104885
0.10551
0.0713435
0.107518
0.107209
0.111117
0.112606
0.111678
0.112116
0.0938625
0.0960703
0.0944964
0.0974953
0.098814
0.0694962
0.0663309
0.0664297
0.0693711
0.102988
0.104966
0.104185
0.10364
0.0821479
0.0803412
0.0856161
0.102213
0.100432
0.117467
0.1175
0.116576
0.113908
0.11167
0.0669638
0.0685177
0.120992
0.11941
0.119707
0.120778
0.0794639
0.0756718
0.0769808
0.103852
0.105664
0.076919
0.0732637
0.071799
0.0515285
0.101362
0.0983017
0.11244
0.0884881
0.0878243
0.0653637
0.0839364
0.0861952
0.0858913
0.0840674
0.0010167
0.102164
0.104
0.10274
0.103415
0.136768
0.137047
0.0880541
0.084386
0.0854468
0.0869085
0.10164
0.101915
0.0997826
0.0664394
0.0709506
0.06599
0.0755574
0.0796683
0.0765091
0.0789063
0.111909
0.121694
0.102725
0.0879828
0.0867813
0.0884216
0.0862375
0.016644
0.122058
0.0164407
0.0164864
0.0924128
0.0926741
0.0923788
0.0925601
0.0603322
0.0820179
0.081725
0.115965
0.115497
0.115771
0.104183
0.0947835
0.116195
0.117416
0.115152
0.0956367
0.0885062
0.0918586
0.0919563
0.0519547
0.127879
0.12759
0.0392857
0.0434546
0.0819029
0.0790529
0.0805464
0.00154548
0.100521
0.120229
0.0709564
0.0703252
0.0724337
0.112588
0.0787125
0.0758333
0.0798637
0.111317
0.108641
0.110063
0.0874669
0.0882085
0.128482
0.129496
0.0872047
0.0891519
0.0916453
0.0987248
0.0948587
0.0963063
0.0430068
0.0479803
0.0454461
0.0410431
0.0409034
0.0139438
0.0117232
0.0170545
0.0979347
0.0968563
0.0990939
0.105286
0.10486
0.106666
0.115029
0.114155
0.121561
0.120963
0.0929341
0.0927757
0.069869
0.0731212
0.104768
0.118955
0.0955965
0.0964364
0.0818972
0.0843839
0.0802117
0.0831616
0.0851976
0.0842193
0.0241163
0.0281274
0.110572
0.108786
0.109406
0.110004
0.0717385
0.088864
0.0902581
0.0904595
0.0440604
0.043445
0.0453883
0.0420559
0.000722818
0.090503
0.0917971
0.0921745
0.0714729
0.0671303
0.0544438
0.0531456
0.117589
0.116713
0.117818
0.0748023
0.0811546
0.12063
0.119937
0.120748
0.119999
0.0618534
0.0908624
0.0899018
0.0737021
0.0744831
0.0761139
0.0721459
0.114042
0.114773
0.113334
0.029676
0.0309963
0.02706
0.0812503
0.0830509
0.078655
0.0578535
0.0562198
0.0913179
0.0886883
0.0992091
0.100305
0.10035
0.108035
0.112859
0.114286
0.114386
0.0774489
0.0848054
0.0817874
0.0829027
0.0837526
0.111526
0.109679
0.109806
0.111258
0.125124
0.103952
0.105955
0.103158
0.107197
0.115386
0.0907138
0.0903302
0.0915137
0.0896174
0.0889987
0.0900206
0.0906094
0.0885552
0.0338652
0.0886264
0.0898031
0.122321
0.122739
0.000537388
0.0298345
0.0686972
0.0680149
0.108164
0.10926
0.111231
0.110429
0.112123
0.117541
0.115182
0.0133093
0.0160855
0.0874375
0.0838855
0.085976
0.0854614
0.126061
0.0922172
0.0927094
0.0914602
0.0166912
0.0823004
0.0806784
0.0833285
0.0795701
0.0817177
0.0838784
0.0820027
0.0834843
0.0819733
0.0819139
0.0808583
0.129148
0.0657055
0.0636443
0.0632655
0.06594
0.055083
0.0574947
0.123401
0.115664
0.115947
0.11592
0.0643726
0.0679491
0.0667798
0.0654803
0.123422
0.124234
0.103881
0.105348
0.105196
0.103967
0.0554156
0.0840553
0.0850858
0.0819451
0.0502124
0.0444455
0.0706951
0.0744897
0.124214
0.123799
0.124292
0.0978047
0.0970588
0.0966752
0.0673908
0.0648592
0.0663761
0.0929934
0.0947253
0.0953553
0.0923934
0.0339589
0.0615613
0.0605753
0.0626473
0.0595164
0.00830517
0.0746116
0.0809345
0.088032
0.107376
0.108664
0.108622
0.107336
0.12816
0.0886305
0.0884932
0.0880462
0.0889124
0.109459
0.110766
0.109348
0.0737406
0.0918716
0.0919993
0.092283
0.106312
0.108343
0.077504
0.0835
0.0811779
0.113153
0.110884
0.113846
0.122302
0.0360074
0.127565
0.0498738
0.0457379
0.087384
0.0865513
0.0902261
0.0379858
0.034963
0.0398285
0.110748
0.11327
0.115287
0.111958
0.0691463
0.0683293
0.0857581
0.0832332
0.0838455
0.0852845
0.0935533
0.0943266
0.0429119
0.0448694
0.0893328
0.0872942
0.0892822
0.0870799
0.124318
0.1246
0.0846717
0.0979483
0.098672
0.09898
0.0732412
0.0741244
0.0720301
0.0359597
0.0813884
0.0813183
0.0849397
0.078129
0.0878384
0.0911144
0.0899137
0.0888962
0.0925172
0.0896454
0.0910779
0.105862
0.104044
0.104383
0.105329
0.0493691
0.0775868
0.0764915
0.114333
0.115929
0.0914869
0.0899306
0.089604
0.0917104
0.0934653
0.0937087
0.120802
0.11897
0.079822
0.101739
0.104057
0.103986
0.0636281
0.0585585
0.0622194
0.0593038
0.0578643
0.0637585
0.112451
0.112123
0.110873
0.0718869
0.0634153
0.0685614
0.0670136
0.0954883
0.0940968
0.110464
0.101395
0.0958813
0.10083
0.0992122
0.0969481
0.11207
0.0517998
0.0531803
0.0557725
0.0496866
0.107817
0.105917
0.108774
0.0333313
0.035136
0.0719238
0.0729755
0.0710158
0.0738473
0.0726846
0.0758685
0.0719309
0.0736256
0.094914
0.0644363
0.0879936
0.0866984
0.0800226
0.014949
0.121621
0.120681
0.121274
0.0892013
0.0476343
0.0803163
0.10707
0.106423
0.108098
0.1061
0.079286
0.0801844
0.0782248
0.0524602
0.0539852
0.000243808
0.104189
0.0577256
0.115224
0.113227
0.113928
0.114634
0.110414
0.111979
0.111574
0.110797
0.102354
0.103442
0.101581
0.104045
0.076398
0.0775901
0.0785196
0.0753987
0.116136
0.115384
0.11625
0.115209
0.0869682
0.0880677
0.0844502
0.0619484
0.0344989
0.0880379
0.115714
0.11261
0.124508
0.123162
0.0547181
0.0495109
0.0927742
0.0935119
0.0938587
0.0725212
0.0652853
0.0638772
0.0625679
0.0663956
0.117139
0.114761
0.113442
0.113927
0.114288
0.0474306
0.0441519
0.0463332
0.045006
0.0869207
0.0871345
0.0874831
0.08644
0.0728254
0.0711665
0.0716405
0.0723729
0.119427
0.119512
0.119945
0.118965
0.0711997
0.0670742
0.0697863
0.0684689
0.0888814
0.0871605
0.10755
0.103512
0.103106
0.107044
0.114778
0.1175
0.115944
0.124381
0.114572
0.112708
0.113055
0.111676
0.109814
0.111344
0.109705
0.110532
0.107446
0.108982
0.0492508
0.11482
0.114059
0.000229988
0.0835725
0.0859588
0.0832055
0.0861518
0.0994273
0.0999118
0.102475
0.0683687
0.0159189
0.0141693
0.0184856
0.109054
0.110489
0.127957
0.102769
0.101432
0.105709
0.104095
0.105537
0.110654
0.108211
0.109201
0.11035
0.119556
0.120877
0.119789
0.103814
0.106946
0.0837899
0.087198
0.0851971
0.00019091
0.108676
0.108117
0.110264
0.108765
0.0660103
0.0675191
0.0645889
0.0687814
0.0595013
0.0660718
0.0346936
0.0368576
0.119099
0.117943
0.0786217
0.0769667
0.0794678
0.0763279
0.0996433
0.104243
0.101521
0.110665
0.108006
0.109202
0.109408
0.0830762
0.0820318
0.0833434
0.0816044
0.0798683
0.0814081
0.0812314
0.07992
0.0763551
0.0780998
0.0755534
0.0676416
0.0690052
0.0695408
0.0669651
0.0873058
0.0902659
0.111082
0.0563774
0.0610084
0.0602642
0.00119446
0.0676206
0.0643787
0.0666937
0.0718557
0.0696344
0.0779097
0.0789432
0.077595
0.0791264
0.0703255
0.0646837
0.0850717
0.0857016
0.0848074
0.0858625
0.116941
0.117934
0.118402
0.116375
0.0656361
0.0679264
0.0648421
0.0689521
0.123393
0.123812
0.123324
0.0737383
0.0744955
0.0762267
0.0719707
0.127292
0.12767
0.127281
0.0532506
0.0862535
0.0852463
0.0861956
0.085431
0.0487997
0.0729589
0.0341533
0.0107279
0.105365
0.00432554
0.00315964
0.0029106
0.0289474
0.0820647
0.0192645
0.000845808
0.00114902
0.000800017
0.000271344
0.0474753
0.000319909
0.00040486
0.00986365
0.00972179
0.099033
0.0170575
0.0152753
0.13866
0.0162534
0.129112
0.0222018
0.029866
0.0299075
0.032463
0.000700505
0.0835472
0.0133595
0.00962313
0.0102342
0.0126882
0.105074
0.136815
0.0234352
0.0254419
0.0606023
0.00271429
0.0911649
0.136961
0.105854
0.122389
0.118964
0.0943525
0.00323554
0.0241011
0.000359116
0.000567064
0.000543736
0.0331329
0.0296203
0.0063722
0.0464382
0.00407621
0.00488516
0.0242529
0.000824894
0.103775
0.0704088
0.138504
0.13839
0.000441541
0.0486556
0.0463444
0.0196603
0.0160011
0.0539239
0.0528201
0.0546071
0.0819026
0.0847846
0.0063482
0.0861173
0.137172
0.136838
0.0478701
0.000756915
0.00738992
0.00393913
0.0830852
0.0115304
0.0306901
0.000480494
0.0444937
0.0246764
0.130047
0.00460528
0.0175706
0.0156235
0.138243
0.114131
0.0057662
0.0797525
0.0371435
0.00731687
0.13488
0.0592819
0.0022435
0.034456
0.0333563
0.00841763
0.019583
0.0204096
0.0228281
0.0182181
0.0256004
0.0387959
0.0395861
0.0357667
0.00211522
0.0196022
0.0581274
0.135848
0.0165378
0.118665
0.0364245
0.112079
0.000550317
0.0224176
0.02111
0.0219684
0.110158
0.0424329
0.0430802
0.0117977
0.000348573
0.00147083
0.00392849
0.0877966
0.0882863
0.0358285
0.0277458
0.0104976
0.0132116
0.00371938
0.0399862
0.0428235
0.118546
0.00281427
0.136936
0.137417
0.0532853
0.0245619
0.0343567
0.0985114
0.0968105
0.0337805
0.0331514
0.0612168
0.0459582
0.00769638
0.00897316
0.0737163
0.025001
0.0327141
0.0817625
0.0832456
0.0790871
0.00489966
0.0137401
0.120111
0.11911
0.0542001
0.0501358
0.0453552
0.0689861
0.0716002
0.0884307
0.00416974
0.00479198
0.0432302
0.138214
0.0083779
0.0113032
0.00979722
0.0030489
0.00407011
0.00933847
0.0126153
0.0172994
0.00365483
0.00978343
0.0133532
0.00505846
0.00684252
0.029732
0.0290419
0.0548783
0.010096
0.0143018
0.0348956
0.000628417
0.00101988
0.0311221
0.00292479
0.044674
0.0401368
0.0245727
0.0237236
0.0127932
0.00816715
0.0129436
0.0168019
0.123545
0.0117155
0.0794592
0.0783841
0.0770905
0.0781951
0.0580394
0.0077048
0.0359324
0.0108999
0.131102
0.0599701
0.00251702
0.0148189
0.0141144
0.0165805
0.00956162
0.00859155
0.139991
0.043281
0.0461087
0.00960895
0.00729341
0.108116
0.122032
0.121346
0.117973
0.00949304
0.0307901
0.138604
0.0510441
0.051461
0.000706421
0.0101351
0.0304416
0.117348
0.119887
0.0202182
0.0967453
0.0123813
0.011
0.0123115
0.0041586
0.106626
0.108186
0.107857
0.00155116
0.0344152
0.115001
0.115995
0.114978
0.0952922
0.0399694
0.0620769
0.0715229
0.119763
0.139221
0.139101
0.0552719
0.137166
0.00181181
0.00222463
0.0086712
0.025869
0.0245179
0.0401747
0.040285
0.0387596
0.0388076
0.00603209
0.00403203
0.00264249
0.125762
0.0974038
0.0146959
0.120563
0.129589
0.130113
0.0665338
0.0693548
0.0672631
0.166159
0.148066
0.00147398
0.0162882
0.108146
0.106747
0.0102258
0.00934648
0.0501152
0.0502449
0.0787265
0.0765727
0.0888663
0.0927898
0.0411682
0.0482559
0.0457927
0.100792
0.0359382
0.0356676
0.0553385
0.0279805
0.0348703
0.0284908
0.00450786
0.0599597
0.00725645
0.113127
0.0137438
0.0149992
0.0482442
0.0669544
0.0567946
0.0478747
0.101266
0.0943114
0.109439
0.0485275
0.0946395
0.0284265
0.138309
0.064126
0.00175221
0.0365463
0.00522806
0.0053732
0.137799
0.0302324
0.0300098
0.0368254
0.137887
0.109241
0.109937
0.0538268
0.069126
0.0719717
0.0752236
0.0760844
0.073188
0.0333908
0.0360394
0.0340313
0.0356495
0.0972937
0.091907
0.135947
0.136523
0.104549
0.103916
0.120934
0.00679146
0.00580811
0.123984
0.0159273
0.136964
0.0611126
0.0631577
0.065146
0.10029
0.0966082
0.0991192
0.114686
0.147012
0.139099
0.122184
0.12096
0.121624
0.122541
0.0117793
0.0625319
0.0539095
0.0148045
0.0146373
0.0993534
0.0403414
0.0858852
0.0917258
0.061447
0.170849
0.0286533
0.0384781
0.0328646
0.0363289
0.00969471
0.0328092
0.0340699
0.12193
0.124247
0.123261
0.046607
0.0487622
0.0108855
0.122275
0.0364009
0.0288836
0.0330919
0.0300029
0.0295556
0.0639952
0.0683957
0.0783219
0.0818827
0.132876
0.127266
0.00254883
0.00339653
0.138355
0.0399627
0.0136335
0.0117376
0.11917
0.117695
0.138405
0.110567
0.138637
0.132745
0.132002
0.0193842
0.0573207
0.126232
0.127039
0.125069
0.125674
0.0949291
0.0885297
0.0954406
0.0977926
0.125257
0.122978
0.00310478
0.119132
0.118047
0.0732806
0.138764
0.138579
0.138533
0.106631
0.108376
0.137608
0.139653
0.138294
0.0896202
0.0604657
0.0636123
0.0629748
0.105564
0.10252
0.104697
0.11922
0.121466
0.103464
0.0715703
0.0743471
0.122726
0.123019
0.0473977
0.0477634
0.0665597
0.0316698
0.000526011
0.00384702
0.0894311
0.0352743
0.0384795
0.0397913
0.074974
0.000840614
0.00170562
0.103172
0.103931
0.0352286
0.00759743
0.0175723
0.0206559
0.00523897
0.0524095
0.0540899
0.0583758
0.113559
0.115275
0.0392757
0.0132643
0.0142633
0.00587785
0.00662832
0.129093
0.127317
0.114405
0.116579
0.123451
0.110367
0.0954459
0.0937287
0.0782589
0.0872657
0.0845012
0.105064
0.106449
0.0860706
0.0843015
0.0433876
0.0447678
0.138551
0.138484
0.242531
0.227083
0.0673565
0.00819142
0.0581464
0.0101398
0.0267822
0.0232583
0.0233749
0.00676203
0.111922
0.0483442
0.0549648
0.0723754
0.0676204
0.057042
0.0582313
0.0767691
0.0750276
0.0701006
0.0581373
0.0309999
0.0250119
0.0512171
0.0200706
0.0688354
0.136382
0.014278
0.0154834
0.120006
0.124024
0.0644813
0.0576275
0.0535947
0.00891682
0.0764649
0.0787471
0.0962974
0.0560535
0.0552496
0.110936
0.0252101
0.000603751
0.0578997
0.0589845
0.0188698
0.0155513
0.0177436
0.0797212
0.0809847
0.0798939
0.0951686
0.0942713
0.0959589
0.123403
0.121811
0.133405
0.0965973
0.0974708
0.0718186
0.0749914
0.0745824
0.0499556
0.0738702
0.0116377
0.139911
0.139574
0.139772
0.134864
0.0898
0.0221058
0.0236145
0.0294667
0.0265835
0.0540186
0.0487882
0.052049
0.0508302
0.0550187
0.052913
0.0508964
0.0981783
0.103855
0.108326
0.0287834
0.0286762
0.0406945
0.0409091
0.0552321
0.0706626
0.124059
0.102035
0.128239
0.0369958
0.00503638
0.00565558
0.135036
0.0250102
0.119592
0.00866027
0.0479503
0.0439422
0.0476919
0.0214661
0.0268851
0.0792923
0.0383034
0.0354715
0.0337754
0.0984794
0.0322951
0.000997984
0.0021584
0.118987
0.138105
0.116024
0.116635
0.0561129
0.112004
0.107143
0.0189016
0.0196073
0.0442422
0.0418531
0.0435712
0.0931916
0.0204378
0.0213754
0.140051
0.140563
0.0502037
0.0235797
0.0221316
0.0557953
0.138414
0.0906617
0.0885512
0.0664333
0.125287
0.0462425
0.00620257
0.00308563
0.00626833
0.0444502
0.10173
0.00736177
0.183261
0.00235627
0.005657
0.00866496
0.00408326
0.00346207
0.00361683
0.00262575
0.00785055
0.128917
0.0356257
0.0371715
0.0629604
0.0766441
0.115066
0.113499
0.139073
0.13922
0.138975
0.0683632
0.0937723
0.0920877
0.0654741
0.0634348
0.0609618
0.0676427
0.0686936
0.0631668
0.0612329
0.0425844
0.0452112
0.0478921
0.145884
0.150961
0.138029
0.137842
0.0455231
0.119611
0.115977
0.0419554
0.0455218
0.137356
0.137057
0.0196249
0.112285
0.11142
0.139132
0.138769
0.0119598
0.133698
0.065283
0.0718762
0.1059
0.060962
0.0415552
0.00370633
0.0412929
0.0945172
0.12341
0.124
0.0454079
0.0500395
0.0513588
0.00367373
0.0682939
0.0689317
0.0602268
0.124811
0.125271
0.126157
0.0378017
0.0625543
0.0682512
0.0689603
0.066554
0.0648636
0.105503
0.107302
0.0881322
0.0580148
0.058536
0.0567202
0.0595331
0.0610467
0.00143505
0.113003
0.114118
0.116117
0.0480268
0.0455892
0.109012
0.108527
0.136359
0.136507
0.054936
0.060642
0.126884
0.127652
0.0821366
0.0821259
0.0803631
0.2308
0.187566
0.0778462
0.0761056
0.0273247
0.0305433
0.122813
0.101967
0.105295
0.131249
0.130466
0.129681
0.0624535
0.0663944
0.1383
0.138011
0.0809801
0.0803037
0.0829678
0.0739948
0.0703837
0.108354
0.107966
0.106934
0.0390721
0.0430407
0.114819
0.116113
0.0238364
0.13782
0.138002
0.0940816
0.126738
0.122841
0.0402791
0.0616524
0.0649332
0.0493019
0.0497778
0.0357849
0.137947
0.119714
0.105352
0.111236
0.116466
0.0429545
0.126678
0.138175
0.0413868
0.00306737
0.00697151
0.100839
0.100558
0.0140691
0.067191
0.0640008
0.0596093
0.120733
0.112276
0.0612809
0.0644412
0.0606122
0.0625878
0.0667817
0.0165466
0.0865058
0.0847503
0.0614925
0.0244058
0.0241973
0.121927
0.0729701
0.0727883
0.0690598
0.0353081
0.0404432
0.0365614
0.0486631
0.0498315
0.0320584
0.0506386
0.0499975
0.0876865
0.0851738
0.0851014
0.00762809
0.0067466
0.0885201
0.0874181
0.0862661
0.0621846
0.0571449
0.0519497
0.0456734
0.0475916
0.00334043
0.0682647
0.0956164
0.0955981
0.095131
0.094767
0.054115
0.111972
0.113176
0.115204
0.0220483
0.149139
0.161183
0.0447201
0.0423192
0.129841
0.128369
0.150694
0.155692
0.102754
0.0994139
0.098722
0.0990763
0.0874148
0.0844467
0.115879
0.112854
0.113856
0.0800966
0.0827892
0.0829801
0.138587
0.140952
0.140096
0.0756328
0.0225864
0.118184
0.112453
0.111901
0.110021
0.0817386
0.0841172
0.0608804
0.0854597
0.082509
0.106382
0.104033
0.0690649
0.0713773
0.128712
0.125388
0.123615
0.0679572
0.0704844
0.0574737
0.0715521
0.0705703
0.114552
0.129337
0.127834
0.128672
0.127326
0.0967972
0.0833948
0.089613
0.129497