/*--------------------------------*- C++ -*----------------------------------*\
  =========                 |
  \\      /  F ield         | OpenFOAM: The Open Source CFD Toolbox
   \\    /   O peration     | Website:  https://openfoam.org
    \\  /    A nd           | Version:  6
     \\/     M anipulation  |
\*---------------------------------------------------------------------------*/
FoamFile
{
    version     2.0;
    format      ascii;
    class       volScalarField;
    location    "300";
    object      p;
}
// * * * * * * * * * * * * * * * * * * * * * * * * * * * * * * * * * * * * * //

dimensions      [0 2 -2 0 0 0 0];

internalField   nonuniform List<scalar> 
29884
(
2.65146
-0.0279903
0.694767
-2.47279
-0.235101
2.40718
0.0765506
-4.4153
-0.755271
1.19289
2.96308
0.631057
-1.31884
-2.35215
-0.0119214
-1.95472
-0.351533
-2.20955
-4.4092
-2.93107
-3.46565
0.696744
0.422673
3.53071
-1.41912
1.32012
-0.931325
-1.20026
0.619209
0.0261455
2.92588
2.38685
-0.700872
5.1453
1.78448
1.64662
0.318046
2.49654
1.31852
0.305363
0.08631
-1.95935
2.76401
4.81378
-3.26502
0.059008
-1.94684
1.32884
0.492585
2.35789
3.00981
-0.440295
0.9881
-1.05166
-3.05162
4.12286
-2.52902
-1.51427
-3.61678
-0.460482
-0.294722
-0.743551
-0.0909431
1.20947
2.26901
-1.71022
0.621151
0.822702
0.13007
1.05509
-0.44458
-1.20204
7.83538
0.650127
0.059995
1.58485
-2.78214
-1.27928
-2.58902
0.119427
1.34395
-2.52522
-0.562676
1.91293
-0.13244
13.9102
0.86498
-0.807536
-0.0679294
17.8306
0.0127367
-1.98972
13.8531
19.2538
2.35264
21.2377
1.18954
1.29133
0.273257
19.1634
1.49907
1.63816
-0.0878384
0.228289
0.0986448
-1.66085
17.1463
17.7426
2.60721
0.700535
0.491093
21.1568
-0.243526
-0.300967
-0.326838
1.70895
2.16167
-0.382612
2.92791
2.23258
0.907632
1.48388
1.21791
2.39554
-0.354824
3.27173
0.843524
1.138
-1.05352
2.59408
2.739
2.41633
-4.11751
-2.0701
-0.207429
-0.682724
2.06605
-0.0581463
-0.0259084
0.235994
0.0240635
2.28898
1.18837
-1.6962
-1.8857
-1.64106
-1.38648
2.10702
1.57875
1.79078
2.23641
15.4155
16.834
0.249863
0.14368
0.606456
0.100705
0.523676
0.224757
0.0890107
0.299291
2.68094
2.77892
2.03199
24.3984
24.3523
-2.031
-0.658102
1.04859
-4.69063
-2.34225
1.20039
1.21493
-0.319183
-0.258579
1.7718
2.00576
-2.19384
1.81438
0.894646
0.962166
4.03419
4.1832
3.64008
-0.0926102
-0.183308
1.20813
1.05697
0.550938
2.65304
0.0416815
3.35083
3.83832
-0.0172416
-0.127972
2.26726
2.33066
0.840403
0.0667031
0.244698
-0.263296
2.023
2.36383
1.57707
2.40406
2.77931
0.0602953
-0.409722
-0.408674
-0.842394
0.49544
-0.689124
-1.8476
-2.91438
-0.967283
12.043
4.79395
15.8729
0.475782
20.6056
20.9069
-9.59716
2.15602
1.12675
15.3811
21.0121
17.27
20.4219
13.9816
-5.87882
5.80474
17.3912
15.43
-9.21864
-9.02173
15.0052
14.9687
2.45622
-2.77705
-6.78635
-6.95148
21.5511
13.3308
-9.34618
-6.1898
3.81319
17.481
17.0089
-4.74196
-5.90422
-6.60321
4.87481
3.91162
3.87218
21.4727
21.1737
20.1153
20.5034
-6.22439
-5.65355
-0.708171
5.04428
-10.1539
18.2302
5.83875
18.498
-7.33954
3.20889
2.81654
18.5724
4.54007
4.60298
19.9227
18.5901
18.9151
16.3875
17.175
20.1254
19.8353
-8.07348
-1.4129
16.3859
0.625059
4.51687
3.25973
4.04311
3.707
-13.3885
24.5803
1.75219
21.0661
15.8447
15.5723
-9.0054
-12.4565
-12.8135
4.76975
15.9529
16.3224
-8.67398
-4.99485
17.2994
17.0156
17.5389
20.1169
16.2169
15.1351
5.6519
3.99681
4.29594
4.26136
4.79006
19.7192
-8.86378
-9.48481
-12.1913
-7.39904
16.6265
-7.28443
-7.12544
-6.72086
19.1334
19.6914
19.8971
-13.0273
4.5468
18.9561
19.544
19.6109
20.0245
3.51761
2.95676
2.85638
2.79471
13.1958
12.5731
2.05061
-2.74983
20.9707
20.9276
-6.35117
-2.69366
20.8011
6.26183
-0.185058
21.1598
20.7405
20.9226
20.9611
18.4526
18.1226
19.0771
4.43788
4.50484
4.58014
19.5132
20.1034
20.2381
20.2241
20.1405
19.0015
18.0189
5.34008
1.39629
3.86014
3.63668
1.35603
1.49928
23.7322
21.7514
-6.11812
-6.4651
-0.0791975
-0.00272756
-0.212727
5.28038
5.10622
-7.70348
-12.6675
-13.4142
-14.1556
10.7203
2.68501
2.55667
2.33398
-8.35453
-8.32005
-8.01999
-7.38536
15.2333
16.4674
17.4736
15.9395
-8.44108
-8.60294
-7.80534
13.8902
14.4422
-6.22105
-6.83792
16.7165
17.8948
15.021
16.3502
15.4622
15.1832
19.1303
2.66947
2.82742
1.81484
2.05814
11.5765
12.09
20.9976
21.1844
21.401
18.5098
-0.106043
10.5541
10.415
12.7017
-6.88609
19.5961
19.4217
20.3402
18.5421
17.9894
17.7462
17.2662
19.6237
19.2222
19.378
18.8071
-3.205
17.0707
18.0571
18.0323
18.3447
-4.63251
-4.57347
18.2797
17.8434
17.053
17.0386
3.18058
2.75404
3.59674
-7.05095
-6.47962
-7.73303
-7.87441
0.602358
-1.00962
12.9531
12.7862
0.242161
0.386294
0.32544
1.59333
-1.4854
24.1133
5.18692
4.52131
4.81762
-8.8734
-8.29793
-9.12618
-8.83655
14.9877
14.0442
14.3829
13.1816
1.46936
1.36946
1.48797
0.958078
0.992109
0.490148
0.0469247
0.251637
0.282857
3.1073
2.86799
2.98072
3.28965
-8.70047
-8.38586
-9.27095
-9.13711
4.88981
4.70341
4.60559
20.9964
21.2029
21.0309
20.4802
3.60352
4.30622
3.76412
20.8558
24.1374
1.32677
23.8009
9.77432
0.892896
0.87106
21.6797
21.4971
0.902497
0.924735
0.92743
1.30367
-4.96126
0.967024
-0.594772
21.3967
21.3782
2.12048
18.1673
0.610828
1.01738
-3.78122
-4.53754
-1.29809
-1.44586
19.141
-2.91696
-3.27979
0.00714291
1.85031
-4.63327
0.0156434
-0.229754
-0.298248
-0.168829
-1.63296
1.87277
1.80004
-2.29139
-2.21217
-2.35736
-0.311425
-0.711993
1.20112
1.23241
1.07451
1.0225
3.36816
18.5681
1.11963
0.971044
-0.327306
1.15242
-0.478036
0.981153
1.04921
1.0722
24.0111
1.35285
1.30128
-6.42522
-5.89852
-5.45423
-2.10753
-5.67115
-4.03966
-0.438387
-0.39509
-0.413609
13.4224
12.5982
-2.53307
-2.3022
-1.90434
-1.36774
6.08667
-4.07925
-0.5895
-0.453744
-1.74095
-1.99007
23.7894
-0.290916
-0.660044
13.1338
0.0609008
0.348802
24.5006
17.6902
18.3276
1.98166
1.09224
1.15109
-4.08484
3.32393
5.3915
6.04547
21.2316
21.0514
3.27329
3.63504
3.50182
1.03735
1.00065
19.1591
1.26449
3.07962
3.32317
1.74489
1.58718
1.46263
2.62757
4.69595
4.17598
5.0568
4.53462
2.54863
0.221495
1.96681
-0.406864
2.46877
0.421557
0.0224093
0.168771
-2.86824
-3.61084
-1.08846
0.207711
-0.169525
-0.626153
8.14676
9.38689
18.3528
18.7914
19.2098
20.4213
0.876592
2.62776
2.4606
-0.0469048
0.556863
16.3408
15.6438
-2.89565
-3.0789
-2.50347
1.85222
0.718739
2.52429
2.92713
6.39961
3.16792
3.7675
-8.53731
-7.96955
1.07439
1.23504
1.07151
1.27843
-2.16067
11.6242
10.8628
10.0815
1.50315
1.58049
1.66476
1.65407
1.779
0.994105
2.03499
2.14483
-2.84526
-2.71402
-2.45141
-1.784
-2.02591
-2.1969
-1.06766
0.870228
-1.64209
11.6344
10.7589
9.56831
18.95
18.7423
4.14771
4.64818
18.6613
18.9191
-0.408886
-0.864986
-0.0980768
13.7022
14.1166
8.34725
7.67192
21.7414
8.48645
-4.16424
6.52572
4.83355
5.72829
22.133
4.11396
-13.2103
-3.64116
-12.5361
3.7365
21.6494
-10.4973
-12.9019
17.8073
-12.1507
-8.92238
-9.5338
4.30205
4.29667
4.57473
2.48202
1.79986
6.35022
-3.453
-3.83263
-14.525
5.79781
5.45212
0.142483
-0.247338
0.462569
2.07196
0.0402949
-0.289199
18.7815
4.56991
5.60658
-6.46447
23.2314
9.72842
9.33016
22.3059
-11.5745
6.50663
-7.1619
-15.6643
22.6198
4.56021
4.25295
2.71328
15.3828
-13.3699
-12.1943
4.2322
-2.79943
-2.1713
2.96263
1.031
-3.65299
4.03582
9.81473
-6.5667
3.63823
18.9114
18.9168
0.318814
0.0490752
-15.3425
3.60284
19.3891
-2.41922
-15.1554
3.92972
4.63553
6.324
-37.2801
2.66089
4.07131
4.62479
11.8096
11.7556
5.97148
-1.53988
-1.88853
-2.32181
-34.674
3.41464
-7.06801
-6.75864
21.4659
3.2993
2.71329
21.7185
21.5436
-8.29036
-8.13463
5.05545
-12.0008
17.4618
4.36457
4.03363
3.3838
-5.21027
13.3765
2.61832
2.25257
-1.42281
-3.42982
-2.54888
-14.5663
24.1629
8.89867
-8.54568
5.87776
5.52303
9.45916
9.13862
-3.80423
-3.49115
-14.9372
-27.8009
-3.95629
-6.68264
-3.62619
13.6032
0.822107
-12.9916
21.4914
-19.8947
4.43133
-9.55531
-9.88455
3.77293
3.75346
0.781544
13.9395
4.64849
-22.6037
-8.15164
-8.27863
4.18202
-9.94581
-2.61482
-0.332831
-12.4441
-12.2862
6.17844
15.7737
16.9022
2.68695
1.88497
6.09303
9.66317
10.1116
-1.06468
6.68088
-1.32626
-1.18024
-0.911293
4.34464
2.72746
2.65071
8.45873
9.49035
17.1322
21.3955
21.6223
21.5994
-1.15354
3.72133
-1.65333
17.1745
17.4897
9.77672
4.5298
8.54834
21.9923
13.1224
12.5637
-2.69928
2.18785
-0.951422
13.3946
13.7355
1.19859
4.51276
-15.215
4.34773
-14.3736
5.71223
5.3096
17.497
1.25848
-21.0597
4.60022
-14.226
1.27357
2.18627
8.47913
11.4323
10.7121
6.06979
3.83023
4.57818
-14.9192
-15.0698
12.4441
4.01285
3.8491
4.55003
4.48649
4.40925
4.88736
-4.14776
-4.46216
-22.1465
-3.18387
-2.53323
-2.62895
7.10647
6.90914
5.51545
5.8396
-2.34119
-2.58316
-5.93671
7.25847
3.46877
3.31602
-10.2613
6.49738
-25.3141
12.2737
-14.975
-15.0628
-22.6906
3.76502
-11.1129
4.52067
4.61336
-10.6946
-8.32357
2.82575
14.391
-20.6767
7.17099
7.47857
-15.5227
12.3781
-3.84318
23.4743
3.41936
3.93707
3.65656
4.08985
4.32781
4.43566
4.55308
3.28383
5.33725
-9.32659
-8.61852
6.14359
5.94309
5.60913
0.302134
3.84791
3.65938
1.76936
-6.0232
-6.69278
4.14895
4.34739
-0.116907
-5.80976
-5.78561
2.45816
2.72309
23.2513
-11.8481
-11.2508
-1.94892
20.8446
3.54838
3.66248
-10.2635
-9.64284
1.21247
1.5896
2.33704
13.0559
13.1632
-13.5389
-1.32955
3.29531
-14.8071
-14.6783
-14.6282
18.9363
18.7906
-6.65301
2.26718
-11.9635
-12.196
5.70434
5.25319
-12.6547
-12.698
-12.5595
10.6285
10.7618
-9.03579
-14.5308
2.86147
6.55488
-13.8057
-14.1429
17.4307
-8.3311
-3.79401
-5.31058
5.72954
22.139
-0.612762
-1.08505
1.32833
0.746066
-11.3947
-7.63476
-7.18616
-7.57983
-6.87259
4.48333
4.50996
4.22595
-11.1145
-10.7162
17.3946
-7.72608
-7.57998
1.77113
-12.8132
-12.0235
-3.4058
-3.02033
4.36975
9.90682
10.2487
-8.95521
-9.47642
3.62695
3.94452
3.66321
4.47679
5.02745
10.8707
6.12674
21.0757
-14.0988
-14.1399
-15.0121
-14.7705
-7.63422
-7.84977
-15.7206
-14.94
-0.825736
-0.893611
-0.903343
0.00576355
-1.38853
-1.93513
-2.11045
21.843
18.2019
-5.18273
3.23437
3.08509
2.832
14.6936
2.68992
2.98616
2.82771
2.34329
2.7561
2.7957
2.03754
2.65171
8.96463
8.84064
9.32952
10.4584
3.15997
2.81296
14.8471
4.00269
3.96759
3.85003
-0.235778
4.53342
16.8189
-7.98332
-7.44799
17.681
17.9912
9.28327
0.769114
-1.52149
-1.56736
4.30225
2.13082
2.25492
-0.36738
3.72266
11.2614
11.1193
11.16
-3.84317
-4.29271
-3.68203
4.50139
9.92643
5.09476
4.36865
-0.572496
21.3205
6.76538
6.63156
6.50968
-5.39067
17.7863
-11.8112
12.9616
13.029
22.9811
24.4877
2.81508
-0.72318
4.07949
-3.50512
-3.21764
4.4173
12.0494
4.54542
5.81324
-12.2309
4.47173
4.64699
4.60319
17.6287
3.53494
3.77304
3.57783
3.60652
4.38511
22.5748
14.9742
15.0686
-0.935623
-0.473557
-0.590214
20.6597
21.1681
4.3008
18.065
18.3708
14.135
13.7022
13.2724
13.4235
4.57671
18.1121
18.467
-14.6754
22.9382
4.42948
4.71358
4.4203
4.30707
4.86459
2.73919
2.49749
2.1637
4.05604
4.1811
-15.7086
4.49615
4.39644
4.49653
0.327618
0.784354
7.20073
5.56074
6.62961
3.20766
18.4815
21.5601
1.34762
23.1702
-8.0354
4.18105
12.875
-8.55193
16.0748
16.324
12.5768
12.9938
4.86951
4.65516
3.49628
3.56046
3.40705
4.32591
4.34417
4.29514
6.12883
6.0984
19.9753
20.7242
23.4325
-1.14901
-12.6791
2.72685
2.85693
2.84034
3.23064
3.28743
13.3002
12.7279
1.47447
1.41456
-0.952277
4.30582
4.33219
4.29765
12.6063
0.743456
3.67419
3.65168
5.14085
4.92454
-12.2299
-12.0433
-11.4945
23.4775
16.9615
16.313
17.6764
18.2788
5.90818
5.88365
19.7454
4.37494
4.22937
6.02547
-11.1541
-10.8997
-10.1352
9.61704
9.36637
9.55468
-14.4672
-14.7419
1.15357
-11.6572
15.7
15.2273
12.3661
12.266
4.06156
4.1568
4.31256
4.35451
5.17542
5.12186
12.9907
-10.1633
-11.4034
-11.0456
5.45563
5.29294
24.5082
15.2262
15.4542
-7.7335
-8.19543
23.8219
20.9434
21.1366
21.7066
21.7473
-6.67969
-7.14571
-9.82808
-8.73262
-11.3078
-12.9429
21.4355
-13.4059
-14.0116
-13.5522
-10.5506
-11.092
-9.77274
-9.01616
23.9504
24.057
21.271
21.1856
23.7156
20.6949
17.9018
17.3213
14.4214
-5.95599
22.5908
4.62379
4.5092
4.5192
4.40857
4.29596
4.50975
1.36939
1.74269
1.61922
2.40958
5.4606
-12.1514
-11.6868
-11.7468
11.8732
11.109
11.3823
2.0248
-0.00951518
-0.113346
4.33904
4.13005
4.05225
7.09895
4.14872
4.46782
4.65005
3.99987
4.19384
-12.4338
4.43222
3.79291
3.97246
24.0111
23.8297
4.57172
4.61092
4.32854
4.42099
-8.63144
3.21186
3.18879
2.43565
4.6549
4.78826
4.92831
4.90824
0.477608
0.687622
0.596748
-2.05682
-6.61249
-14.0541
-13.7404
-14.2113
-13.6573
17.3084
16.5301
0.596041
1.29459
3.86273
3.05248
-16.9829
7.25412
-7.22092
-7.75544
-4.28509
24.2856
-14.9126
-13.2989
3.80683
4.44509
3.13157
4.55505
4.59989
21.0018
-3.13733
-2.75779
-2.2295
-11.4623
-12.0941
-12.6134
-14.2603
-14.2833
-13.9709
-8.0891
-8.80663
14.0685
13.5301
2.13648
2.20838
2.60255
24.2253
19.3355
21.6763
12.3896
-11.0167
-10.6634
-10.1456
-10.4302
-8.86032
12.6141
12.7749
12.0516
-4.96229
-4.9642
-4.41619
-4.26913
-13.5142
-13.3305
-14.4703
-14.1479
21.3579
21.6972
21.2817
21.26
-10.4483
-9.56406
-9.85442
-8.50892
15.2682
-11.7767
4.49954
4.3531
4.44911
4.3457
-1.58252
-1.2312
-1.4159
-5.18238
-12.5852
-11.6596
-11.9442
0.5503
0.806595
1.17689
4.84502
4.69199
4.57696
1.17582
0.771754
12.354
12.7054
12.084
11.6978
3.56087
3.2857
3.10885
2.96478
-13.2687
-14.4893
-14.2711
0.226846
-0.445892
3.04636
3.38781
2.86761
-11.5838
-12.2554
3.89549
3.98788
2.19268
2.78906
1.55922
2.20904
4.61939
4.44071
4.56276
-5.39972
-4.90635
-9.39144
-10.3555
-9.88639
-11.0229
13.5755
13.5779
1.23357
15.3514
15.4173
16.8535
4.55797
4.57303
4.49079
4.51405
18.3662
-2.91953
-2.16072
-1.98327
-1.33725
2.4571
2.15634
12.675
12.5517
12.2039
12.7995
-1.74489
-1.31942
-1.95829
-10.8097
-10.9151
-11.5609
13.886
13.9436
15.0984
15.0928
-6.21791
4.75278
13.6088
-5.5728
-5.92539
-4.42309
-5.16678
-28.1107
5.43263
-28.0133
-27.9162
4.01672
4.20207
4.2655
4.11093
3.40181
14.318
14.7811
3.35675
3.2061
3.54524
-0.631433
-0.857986
-13.6494
-13.2916
-13.7549
-11.5896
-12.0665
-11.3684
-10.432
14.4723
5.80958
6.12206
-9.3391
-9.68427
12.696
12.7659
12.718
11.4346
-0.502075
4.24254
4.15052
4.08694
4.24746
0.766606
-6.82948
-7.06628
-6.42978
2.3604
2.15267
1.99044
16.5701
16.8676
3.29141
2.86981
-10.4772
-9.65593
-10.2609
6.94333
6.91389
4.26035
-12.1406
-12.1216
-11.4045
-13.0163
-13.4536
16.6281
16.1038
16.415
-3.90115
12.2934
12.1801
-1.3993
-1.3638
-0.392049
1.83013
1.1815
-12.3549
-12.5897
4.07823
4.14209
16.0012
15.5023
2.37086
2.47742
3.82427
3.71778
5.04638
5.1111
4.90837
4.55674
4.47971
4.43308
16.5657
16.3694
0.318374
-0.131947
-0.518064
-0.138706
4.13274
17.2639
17.0759
16.6452
21.4675
21.5708
21.1911
21.5598
17.7958
16.4014
16.5744
16.2226
4.54778
4.30589
13.3688
13.1467
2.84379
2.99947
3.2869
6.98081
6.64613
-12.8494
-13.3136
-12.0146
-12.0994
17.7612
4.1364
4.33357
17.1818
17.1035
16.6564
16.9389
1.65745
1.78077
1.4358
-10.7584
-11.2263
-10.7728
5.16269
5.60186
5.09196
11.1802
10.9557
16.7057
16.5676
-2.99814
-2.7428
-2.58486
12.5345
-12.0428
-11.6049
-11.1506
4.48354
-5.25368
-5.98135
-5.78869
-6.00195
-0.0720639
-0.562482
0.446752
0.285806
4.18424
-13.3338
-13.0082
-12.4359
-12.4411
2.31098
4.10915
4.15134
4.4378
4.46872
4.35835
4.14915
4.4447
4.52923
22.0736
15.5673
16.1204
-11.9763
-12.0707
21.7619
-11.5023
4.98033
4.57855
-0.848776
-0.636521
1.1419
0.702389
1.17415
-11.8801
-11.965
-24.0119
-23.334
10.9815
10.9102
11.8672
12.3092
5.28855
4.50479
4.56505
4.52242
-28.3657
11.68
11.9566
10.6017
10.3578
-7.27471
-7.05386
-6.45776
-6.05744
4.57816
4.5365
4.4966
5.59193
-14.2513
-14.2814
-14.9648
-14.6253
-6.37398
-5.73616
-10.9261
4.32153
4.024
5.06488
13.1262
12.7523
13.1694
12.8673
7.00144
7.51359
-2.85902
-1.80496
-1.28596
-1.23489
13.6296
16.7734
16.5614
-7.28031
-10.4345
-11.1179
16.3279
16.3387
5.07815
5.21465
5.25452
3.9805
3.88873
3.81761
-7.89619
-7.99822
-8.07451
12.638
12.2587
12.7327
13.1685
21.3951
11.7625
12.3607
11.0275
11.2955
-8.81724
-5.00491
-7.27216
-7.27078
-1.10908
-1.02423
-0.0277728
0.031096
3.62598
4.50492
4.534
4.38336
4.27848
-0.580095
0.543408
-0.0195746
18.0301
4.2764
4.37196
4.27476
-0.751282
-0.233476
-13.5161
-12.9778
-12.9584
-11.9127
-11.2124
-11.5365
5.41847
21.9836
5.8547
20.6462
20.7321
5.35778
5.1372
5.29013
-9.65877
-9.97583
-10.2381
0.403309
-12.7424
-13.4164
-13.8205
18.2479
18.5117
4.79038
4.73855
4.57953
4.64965
4.09594
4.19789
20.6166
20.7063
4.55836
4.66042
4.64035
4.81793
3.1323
3.387
17.4127
4.38547
4.3836
4.45019
4.16044
4.19025
4.06396
-23.9264
-10.4036
-11.1744
-12.1398
-11.6905
17.6129
17.1372
16.5395
16.7641
-4.32418
-5.18513
-4.79576
-7.18491
-8.36314
-9.0527
-7.55056
-19.4248
4.54257
4.46566
-0.5811
-0.252617
-4.74249
-5.34605
-4.40286
-3.82351
4.25021
4.45031
3.74831
4.19851
18.5381
13.0365
12.7999
13.302
-10.4546
-10.225
-10.0179
-10.5242
-7.76313
-6.85804
-9.40405
-9.30834
-8.31846
-8.348
-8.13233
-7.87662
-7.13856
12.2714
12.5097
-0.357161
-0.455899
-12.3018
-12.4232
-12.4905
-12.6722
0.830343
-9.77112
-9.17293
-10.1067
-9.86755
3.23899
3.50713
3.44175
21.7443
16.6173
-8.61765
-8.01072
-7.73715
-7.21984
5.47898
5.56686
-16.2559
-16.8454
6.06115
18.0566
4.38936
4.51938
4.43996
-10.648
4.93893
4.78591
4.77847
-6.42591
-10.5305
18.0358
-6.0166
-7.05813
-7.00223
-7.51562
4.51553
4.52205
4.45567
20.4509
20.3945
24.5881
0.0218318
14.3983
3.56279
3.72443
2.94468
3.36505
-0.341293
0.078413
0.865435
0.669612
3.85773
3.96891
4.41595
4.15256
-7.98488
-7.28336
-6.61416
-7.14468
1.88502
1.86041
3.04651
2.15617
-5.92826
-5.51041
-6.34413
-9.20293
22.146
-2.75063
-12.4475
-12.0411
0.112854
0.0630461
19.3948
-6.35396
4.23961
4.0455
4.02778
18.6164
4.53662
4.37966
4.7749
5.07301
3.32077
0.984067
0.579637
1.54663
1.77807
20.633
20.7741
20.0624
20.3492
4.50161
4.51182
4.34031
4.49404
4.21842
4.13512
4.18021
4.19376
3.62717
3.86713
4.07741
3.73821
18.6318
18.5198
17.4698
17.7148
17.8384
17.4989
-8.90123
-8.38793
-10.3865
-9.98286
0.660614
0.730607
0.355805
6.03097
-14.2215
-14.8377
-13.8767
-9.69742
-9.23827
-8.31676
-9.4028
-10.6594
-10.1945
-11.0084
-8.0623
1.86079
1.38854
24.5986
16.1118
15.7848
14.935
14.8637
-10.9196
-10.4008
-9.6039
2.35921
-9.42543
-9.15132
-9.47551
-13.6775
-14.0033
2.70509
-13.9823
-13.8336
0.799549
0.436734
-0.377407
-8.94692
-8.31156
-7.21111
-7.94625
-13.5789
-13.2095
-12.8501
8.05341
6.88866
-3.67358
-2.99994
-3.67791
24.6085
-7.25669
-7.00193
1.65866
1.60803
4.70774
5.40481
5.39072
5.51604
-5.4024
-4.62704
19.988
20.2265
1.41081
2.02563
14.6564
14.7257
14.9929
15.1067
-5.39458
-13.6852
-13.7781
6.25115
6.49128
5.75001
6.16904
4.54614
4.59695
4.61528
4.52492
4.54607
4.56754
4.49397
4.46146
4.31878
4.36107
4.24651
-9.11546
-8.80821
-7.97106
-8.27002
-14.6025
-14.6597
11.6969
-13.2903
-13.0345
-13.1302
8.62202
15.2342
15.2775
15.5291
4.2116
4.01723
4.44162
4.40992
4.39608
4.4044
-15.9729
-15.0569
4.48398
4.49786
4.55916
4.47012
2.33519
2.82152
2.95438
3.3786
13.6705
13.9758
14.24
14.2611
-12.1721
-11.7796
-12.1657
16.9219
16.5008
15.9328
15.9816
5.49826
5.5592
5.39711
17.4987
4.33692
4.44986
4.55542
4.55053
-17.4788
-19.475
-24.4959
23.6485
-3.59505
23.8146
24.0015
24.0738
22.0534
-16.6488
19.4629
19.5822
19.6713
18.8409
24.6193
17.9508
24.3491
24.3803
23.6424
23.6895
-15.735
16.9663
16.8195
0.588855
22.9235
-4.83117
16.4246
22.2254
22.2351
-13.2791
19.9692
4.537
23.4465
19.4956
19.3949
20.2365
-1.51796
0.233884
15.4928
15.3668
-17.1401
23.7722
-0.377333
1.97351
-0.819953
4.2423
5.04611
-7.45611
24.3448
18.8236
24.4967
24.4646
24.4196
-4.72459
-5.0036
24.1322
-6.48417
20.0918
19.8751
21.6235
20.5179
-4.32972
-18.7616
0.552065
0.655149
24.6453
-20.9384
-21.425
16.5351
-23.2596
19.6824
19.905
19.7485
3.68952
3.58933
24.1166
0.810449
1.37799
1.57417
-22.0487
18.3225
18.2637
24.2899
5.24511
22.7674
18.8607
24.349
19.8573
21.8531
3.02416
19.8202
17.9415
18.0026
0.683721
4.80326
17.9108
16.6465
21.9436
23.894
2.28464
19.3068
24.1093
22.0088
22.068
23.9919
23.2038
23.1388
22.5096
22.8935
22.8135
17.7012
17.4551
22.0486
19.0266
22.7281
16.9574
1.00298
23.1812
10.3093
20.0961
-1.70281
21.6572
22.3877
22.5416
22.611
6.07954
17.7025
17.5962
-29.8031
24.4551
24.4717
19.8937
-1.30631
-1.06371
-22.3243
22.6488
-24.4672
-23.8495
20.7769
9.50412
10.0298
-1.64381
10.0124
0.382971
0.317741
16.9459
18.423
22.0241
0.231247
-0.00470951
22.1341
21.2051
5.34892
17.7151
23.7793
21.0139
17.5669
18.5964
16.1676
-14.6976
-15.1819
-14.8594
24.163
19.0735
-13.7823
-14.2535
5.68937
5.69979
-4.4604
-4.33011
-3.92964
1.88828
23.5495
23.1832
1.02571
1.32587
21.29
21.2188
21.2565
23.9341
23.8623
21.2276
21.1387
22.7761
23.9789
21.1609
21.0756
23.1907
23.1195
22.5037
22.5019
6.39203
21.0618
20.9001
22.1847
21.7561
21.1656
20.6882
24.3608
19.2386
19.459
22.1962
22.1166
19.2926
23.2028
20.6301
20.5464
2.50799
20.8937
4.48572
4.43667
4.39975
-14.1785
-6.09546
22.9052
-8.07755
21.0507
2.58005
19.0999
24.2023
21.5196
21.3523
21.4363
23.5594
22.6352
1.01216
11.9864
11.0286
20.9326
21.0158
-1.13339
3.36928
-2.53029
-2.31707
22.3344
19.019
0.459977
18.8826
19.367
21.3153
21.987
-25.1589
6.23348
5.62157
21.0034
-4.44314
21.3885
21.1322
21.1923
24.2842
-5.38941
-5.59265
-5.34085
16.0918
22.154
-1.09853
-1.33638
2.00088
1.24953
-22.4504
16.4053
18.8388
3.2347
0.785831
0.626347
19.6517
1.70323
24.4092
24.3619
23.7061
21.8339
-26.3771
21.6383
21.6842
21.7515
21.8243
17.539
21.1962
21.3351
-1.89621
-6.60728
20.3796
7.13281
3.60044
3.5597
17.3997
4.31609
4.21656
-2.69709
-3.01307
24.0121
-22.8605
-1.0987
-1.49211
18.4816
18.7432
17.6453
17.6719
4.56297
4.44684
0.939788
0.525936
21.5285
-14.031
-13.6654
1.80454
21.9421
21.9002
8.97604
22.5397
22.0918
19.2102
23.126
19.5995
18.9259
-1.60502
20.8515
20.6506
-18.2719
5.95746
19.5485
-18.266
5.68655
6.33941
5.74178
-18.358
2.70054
6.97525
-3.80806
17.9297
23.9842
21.9661
18.9505
18.7014
-1.50722
21.9969
22.0266
19.8854
-4.0246
-3.81894
-3.53946
19.834
17.2669
17.2357
4.29524
4.3473
-14.5842
20.5408
20.4456
20.8354
20.2429
-1.71166
-1.78339
3.06375
2.7811
-0.884387
-0.552186
3.25592
23.903
23.9563
4.1747
23.1424
-5.21992
3.88825
4.00737
4.1638
-14.545
-14.2781
-14.6331
0.112275
-3.33138
-3.7375
3.82717
3.12291
3.21324
1.14107
5.40347
-6.94662
-7.2045
23.1785
23.1433
-0.131689
18.1525
-14.9554
-14.8062
-15.2188
-1.89359
20.5565
17.4652
20.4869
11.2219
23.7383
20.1173
19.9267
1.80778
1.75874
1.9371
18.1114
18.2748
23.5974
3.00707
20.4196
11.5576
19.4481
19.3949
18.8937
2.37718
3.92543
-12.6031
-12.671
-3.60523
-3.99525
20.3061
20.1895
1.35867
20.2976
19.2539
23.4736
0.522476
-0.00472293
0.803333
-3.97858
0.724833
1.96702
1.90369
23.23
19.4483
3.21
3.11114
2.66144
3.00975
-4.84935
-4.81182
5.70635
5.54842
6.73076
7.50782
24.3396
1.63714
1.15665
-4.93901
0.397374
0.415452
0.430832
-1.08029
-0.976597
0.778679
0.694558
0.452089
-1.34454
19.4535
19.3473
18.6782
-6.36789
-7.03769
-7.54666
-1.66446
-1.52244
-5.7002
-14.5357
-15.119
-2.03973
-1.84416
2.30314
2.20749
18.9621
18.4761
21.6843
20.5271
4.78114
-11.0463
-11.118
-10.86
4.34272
21.6241
21.5329
-2.61098
-2.17686
19.7595
23.0518
21.0776
21.0319
23.8855
18.6007
18.7956
18.8272
1.64764
1.62416
19.8023
23.5839
23.5395
23.7871
23.7602
6.55416
7.81484
-4.55596
-3.64581
-5.63173
0.383642
-10.6598
-10.0558
-7.10921
-6.62124
-6.99378
-4.18071
-3.90402
-6.45597
-6.72099
19.7708
19.5747
0.670393
0.73506
-0.0850778
-5.32036
18.9833
23.4665
17.8531
23.4837
20.7687
20.8901
20.9069
23.9438
-2.91608
-6.55216
-6.60839
-6.29663
-6.38553
3.09054
3.19915
-13.5717
-14.0345
18.1554
8.29622
19.6929
20.7977
8.78017
20.3578
-9.20262
0.276176
22.7966
22.5947
-1.17326
-1.07846
19.0965
-10.9391
-11.0071
23.9313
-3.5878
-2.76175
-4.73176
13.183
13.0375
1.62687
21.4773
21.7624
13.4694
13.6726
18.792
18.6534
18.4586
4.517
4.6013
4.52847
-1.34782
-1.44116
-1.763
3.67142
3.43367
2.78541
4.51796
4.64986
18.6676
18.3977
18.5649
2.41845
4.26753
23.2023
0.937908
0.939336
0.97013
1.88851
-11.7561
17.31
17.9615
17.6604
18.3406
2.58554
10.8482
10.8523
20.2028
19.8109
12.4209
6.54352
14.478
13.9389
13.4752
22.2838
22.1812
2.58054
2.38217
-5.65109
4.04461
4.1355
-5.72333
2.73375
22.0191
24.1213
24.0665
2.02682
21.4777
2.69466
-25.7359
18.8529
18.7362
18.7314
18.7243
18.9414
5.96748
-10.5461
-10.2631
-10.6116
-0.939089
22.055
21.8375
21.5045
2.72857
0.796249
2.82195
2.9938
12.1591
-0.0493591
-1.10858
22.9198
22.9224
21.2762
21.365
21.1495
-1.39688
22.7846
22.7705
0.984512
0.250232
10.0844
21.2124
21.1336
17.2337
1.01429
5.22954
5.06697
17.3917
4.56261
11.1427
21.3512
10.4214
11.1569
21.1563
-1.06778
21.2531
-2.81082
23.9899
12.987
13.1124
24.2448
24.2723
24.2924
23.9332
21.241
2.32529
21.6806
21.8123
-16.0591
18.1553
1.43528
0.645486
1.12512
1.04772
1.16773
3.93383
4.45291
4.40597
4.36881
4.11863
3.99711
18.6211
18.7682
3.58218
3.45503
-11.0451
-11.0872
-11.0669
-1.4546
-1.40055
1.46657
1.51668
2.01678
8.14478
9.03454
9.72382
9.00573
1.84101
2.01838
-11.3821
0.655055
0.171985
0.872367
0.848561
20.7804
4.62041
16.5134
16.0271
0.522743
19.1282
-11.2691
23.8051
2.50263
-1.16486
3.98679
4.21797
-8.55184
-8.63133
-8.26955
21.1751
13.7534
14.5442
15.1759
2.47265
2.25216
2.06013
21.8975
14.7813
14.9418
14.8648
14.3844
4.49082
3.97338
3.81253
-1.87001
15.3396
15.1977
15.2764
12.5448
12.7395
24.1803
2.12783
2.56037
2.23905
-14.3311
-14.3526
-9.63631
-8.55433
2.61564
2.68644
18.464
17.9924
3.59837
3.63093
18.0868
17.6863
17.5413
-2.91829
-2.50271
4.86475
4.73898
19.2139
19.2944
-0.35987
-11.3021
-11.5457
2.28699
2.14648
2.51553
-13.4612
-13.6177
0.820554
0.781911
16.6022
17.1339
16.8166
-11.7749
-11.6732
0.553688
0.643895
0.135058
-7.4392
-7.1872
-11.9956
-12.1716
18.5811
1.59771
1.47824
-14.854
3.32843
3.49756
20.1239
19.7288
19.2764
13.2235
13.6009
21.9114
1.48365
-0.327505
-0.660125
-0.201706
-0.0436092
19.5354
4.36546
0.0941285
-11.9096
14.0207
14.1379
-8.6456
-8.27589
23.5658
3.85667
6.9443
6.98631
4.74831
-5.2023
10.3226
10.1456
-16.1965
19.1515
18.7905
20.7328
17.4565
17.5641
3.61194
-11.1369
-11.4364
4.12001
14.0468
14.1021
14.0165
18.3007
18.8233
18.991
20.5077
20.6019
-6.80563
20.8538
20.7384
17.1384
17.8352
17.5141
23.7283
23.7852
4.50713
4.41945
4.46471
2.76444
2.28121
19.9831
20.485
20.1305
24.2204
-5.2583
4.33007
4.18906
3.95701
3.91078
19.1689
5.29043
4.51661
4.60601
-10.8189
-2.60609
-1.56316
-10.1729
-10.4786
-0.29803
-0.26129
-3.70386
-3.25448
-13.5673
-13.1731
-14.0209
1.81934
14.5575
14.9265
-0.686749
-0.592496
-0.241322
17.9126
17.8136
17.7902
-0.8251
-0.760919
-0.959177
-16.1308
-26.9198
3.1966
3.14563
-12.0638
-11.8729
4.79793
4.93212
18.1619
-14.1258
-14.4817
4.28083
4.22734
4.69426
4.69544
4.89715
5.3487
6.34915
17.6015
17.7895
-10.4185
18.113
17.9808
1.2955
1.39627
1.86073
1.94873
1.46018
-5.18483
-5.09862
-5.18197
6.40599
7.09563
8.4788
7.91272
18.7699
19.0017
-1.24077
-1.35684
4.51932
4.49261
21.8978
24.1642
16.3834
16.082
19.2507
-5.79515
-5.95658
-5.96109
2.5583
23.4249
15.7079
15.8273
2.75853
2.64082
19.9207
19.9062
-13.8158
-13.6063
5.43894
5.08158
5.0831
18.4038
18.3926
3.44902
3.82487
15.8949
15.9103
21.5121
21.3566
-22.7711
-0.528732
4.00409
4.05884
-2.58484
-4.51712
21.4423
-10.9235
2.53442
-3.89416
-4.04616
2.69452
3.14781
-9.8314
-10.1339
-0.264305
-0.182916
-0.575576
2.38127
2.58228
1.05991
1.51444
1.36407
21.7802
21.3269
24.278
20.9272
21.0194
20.4919
20.9549
0.330467
0.597457
0.294008
1.71088
1.76308
4.35698
1.20139
1.04277
0.858583
2.26874
2.33127
12.679
20.4822
4.22112
9.56961
9.17462
-9.48489
6.3408
4.1707
6.44175
-14.9196
7.82118
-9.65229
-11.1701
-9.04789
5.13676
6.02654
6.99942
5.76742
-9.67815
-23.0886
-6.3009
6.66221
6.42657
7.14807
6.81497
7.09295
-8.61269
-0.470692
3.83567
4.98875
8.79417
4.80911
-8.83342
-8.52936
6.61019
6.62387
5.10503
-8.20843
-13.841
-10.092
6.69461
-7.34504
0.560915
8.44306
7.21209
2.80007
2.96401
-3.33789
-3.97738
-8.60332
-9.40442
-8.9412
3.0194
2.51061
7.10448
7.37406
4.3356
4.03215
14.4399
-1.84719
12.7606
5.80744
-4.7284
0.523568
9.93861
5.43028
5.91063
4.70175
7.42052
13.4051
5.69343
8.09518
6.58109
3.4116
7.81074
5.00531
5.64672
6.68095
6.39176
-11.3496
-11.5896
-0.570607
2.07741
-15.8919
5.50892
-9.37621
-4.2573
7.10637
1.97595
12.361
1.53403
0.892908
-13.8185
-10.493
-4.17008
-5.01797
4.51623
-8.67985
-8.74023
4.26475
2.66177
3.20495
4.03264
1.35126
2.28559
8.55339
-0.407393
-0.277422
0.324036
-7.99817
21.3698
2.42381
-30.4481
-11.6973
-15.3886
4.0069
-6.6747
-7.90419
11.6694
10.5062
-1.40032
10.659
-23.0989
-3.58529
4.57182
4.57156
1.57197
1.24238
-11.414
0.855354
4.53879
-4.38547
6.46726
1.36923
0.598863
-12.707
16.1288
3.91124
10.6286
6.54457
6.39378
-12.9528
-10.7796
5.99382
-12.488
-12.6848
14.1012
14.3856
11.5975
12.7882
-10.0446
2.55733
3.13622
2.52717
5.76165
5.62096
8.99635
8.3783
8.93618
4.84465
12.3411
6.41601
-2.77504
1.38315
1.28864
0.346301
-10.9845
7.67802
-2.23348
4.03033
4.25436
-8.08694
-16.3399
22.0386
-10.7989
-11.5788
17.4763
7.30958
1.32164
3.15086
-6.05092
-5.89068
3.31523
8.88977
4.18452
-16.4667
6.41922
4.38572
0.722324
0.704874
9.15289
9.11423
-8.9752
4.1658
-7.45382
-7.44302
3.58307
0.144314
-15.7202
9.24818
1.62778
2.17975
10.5788
10.6773
6.66636
6.92646
-0.00154408
0.268116
1.61442
1.08507
0.760264
15.7322
2.06573
17.0393
16.9759
17.5283
-4.86508
-5.34917
-6.57554
6.00476
-1.91669
9.83813
-1.9984
-1.31034
-2.60532
2.10744
-15.2909
-0.208744
7.7898
9.01729
8.80188
13.8228
12.9575
13.2219
8.08721
7.94055
-10.4727
6.36183
12.2311
11.5544
-5.1918
-31.2704
8.53006
-14.1758
-10.4293
3.62399
4.22524
3.50789
3.26519
-9.47625
6.19347
1.3715
1.46844
12.1132
11.2912
4.60087
-2.15658
-2.71692
4.33203
4.49255
-10.2381
-9.60192
3.11257
2.39689
9.25891
9.31692
9.20225
4.63379
5.21327
8.02732
6.84682
6.23668
7.53875
7.39307
6.89105
6.64367
7.33703
8.14961
4.35835
4.11179
4.13029
-3.45395
11.1771
6.90624
7.22522
8.12034
-7.81813
16.5369
2.00486
2.27221
-15.7591
0.0054775
0.353306
-0.280433
-15.2372
-15.0021
-1.95749
3.75816
3.13534
-0.585389
0.213762
14.1129
7.93142
3.30128
3.99197
0.429704
-22.3633
7.84856
8.92913
8.94251
7.62328
7.67177
-0.711853
0.941684
0.406184
1.27021
1.62141
4.97537
12.9881
12.0747
5.32044
14.3182
14.7308
14.7587
10.0503
10.2017
5.55693
11.1231
5.37559
5.76938
2.93659
3.64066
6.84746
5.93165
3.35496
3.87249
9.41379
10.2703
-4.03776
2.96405
2.7318
2.83308
5.65721
-15.6944
-6.10839
5.37337
6.15953
3.49899
3.75034
3.03392
6.59659
9.84355
9.87825
21.2766
21.2938
21.4949
10.3866
10.8556
10.6151
9.5504
7.09171
10.5809
11.4244
3.43953
-11.1723
-11.5268
-7.50959
-7.56499
-0.633011
-1.74982
17.0693
4.68115
4.31039
18.3163
-8.22774