/*--------------------------------*- C++ -*----------------------------------*\
  =========                 |
  \\      /  F ield         | OpenFOAM: The Open Source CFD Toolbox
   \\    /   O peration     | Website:  https://openfoam.org
    \\  /    A nd           | Version:  6
     \\/     M anipulation  |
\*---------------------------------------------------------------------------*/
FoamFile
{
    version     2.0;
    format      ascii;
    class       surfaceScalarField;
    location    "300";
    object      phi;
}
// * * * * * * * * * * * * * * * * * * * * * * * * * * * * * * * * * * * * * //

dimensions      [0 3 -1 0 0 0 0];

internalField   nonuniform List<scalar> 
44611
(
1.51368
-2.13565
0.621967
1.5137
1.44549
-1.44549
1.93778
-0.49229
-1.31967
-0.708968
2.02862
-1.31967
-0.0936794
-2.15832
2.07447
-0.560747
1.30356
-1.30356
0.180362
1.85475
-2.17601
0.730522
2.37666
-0.340558
0.412721
-1.73239
-0.790592
-1.1902
0.790592
1.28388
-0.557052
-1.34536
0.557052
0.746497
-0.598888
-0.824325
0.824323
-1.17133
1.35169
-0.0126712
1.29045
-1.27779
-0.142673
-1.85056
1.99325
1.52577
-0.211584
-1.31414
1.21562
-1.21563
-1.10345
1.10342
-1.51649
1.51649
-1.20233
1.20234
1.5101
0.0156064
-1.92427
0.407777
-0.919248
-0.788083
1.70733
-1.62822
-1.27477
1.27478
0.12077
-1.43364
1.31287
-1.5066
1.50661
-1.29574
-0.216003
1.51175
-1.38475
1.38475
1.66284
-0.146344
-0.460506
1.5182
-1.0577
1.71318
-0.49755
1.33613
-0.224456
-1.11165
-0.704632
1.09271
-0.388098
1.19782
-1.47749
0.279641
-0.882388
0.882379
-1.14624
1.04189
0.104336
0.950665
-0.950672
1.18498
-1.32766
-2.27834
0.815381
-0.815365
1.02116
-1.23273
1.83654
-2.04808
-1.61723
-0.623222
-0.820938
-0.796344
-0.89782
0.897814
-1.03996
1.02728
1.92509
0.0979203
-1.48263
0.110008
-0.304266
1.2155
1.16116
1.73239
0.171339
0.532966
-1.22212
2.04306
-1.48262
-0.994193
-0.483302
1.28524
-1.28522
0.886256
-0.397942
-0.488353
1.33544
-1.14415
-0.191308
-0.786806
-0.618742
1.40558
-0.000626046
-0.0824563
0.0830824
1.67547
-0.385019
-1.69617
-0.154344
-0.365546
0.905883
-0.540332
-0.0396109
0.0470235
-0.00741284
-0.147854
-0.60752
0.755386
-1.15621
0.451585
0.00975492
0.0652723
-0.0750265
-0.0338625
0.00746542
0.0263974
0.858623
0.219714
-1.07834
-0.00248957
0.00248848
1.47568
0.523835
0.241599
1.23408
0.800915
0.87454
-0.0243662
-0.00949641
1.23368
-0.502554
-0.731134
0.923069
0.310609
-1.07792
-0.618215
-0.274098
-0.803777
-0.983756
-0.470337
-0.912314
1.38268
0.00523204
-0.0448432
-0.00739631
0.0351949
-0.0277985
-0.738271
0.859035
-0.664552
-0.283174
0.947756
-1.18494
0.968932
0.000529916
-0.000530306
0.0986596
0.807234
0.984906
0.652901
0.871164
0.464273
1.1629
-0.291741
-0.0890671
0.642825
-0.553737
-0.367472
-0.490207
0.857662
0.417706
-0.761341
0.343641
1.14083
0.859174
-0.762558
0.767368
-0.00478634
-0.802468
1.08211
-0.893075
0.19378
0.69929
-0.913547
-1.12986
-0.84004
-1.4383
1.11414
0.334878
-1.449
0.935478
-0.0768572
-0.197206
0.753358
-0.556152
-0.961314
-1.08676
-1.43165
-0.839999
-1.08087
-1.59084
0.750895
-0.870896
1.27867
-0.352706
0.804107
-0.451396
-0.98342
0.179649
-0.422927
-0.544933
0.967845
-1.32429
0.901349
-0.2605
0.830556
-0.570048
-0.832215
-0.0800975
0.750465
-0.618349
0.83806
-0.899849
0.595581
0.0503757
-0.0406205
0.0389465
-0.0463428
0.594177
-0.818617
0.854822
-0.683468
-1.50207
0.68225
-0.801955
0.119729
0.819825
-0.709797
0.912404
-0.0888681
-0.823559
-1.41316
0.000776698
-0.000776882
0.000776715
1.06476
-1.06478
1.06477
-1.06475
-1.15583
1.36058
-0.204758
0.615115
-1.06023
0.445105
-0.290505
1.35528
-0.899784
0.585416
0.314365
-0.933424
0.0336372
0.806547
-0.623004
-0.183643
0.0197437
0.344852
-1.14732
-1.23924
1.23922
-0.43821
1.36127
-0.102816
-0.476668
0.00580544
0.47086
-0.155252
-0.321415
-0.656658
0.501407
0.361906
1.01481
1.40275
0.61467
-0.012594
0.981536
-0.0840809
0.943115
-1.2595
0.36423
-0.854441
-0.292427
-0.933399
0.337513
0.595886
-1.11402
0.180618
0.0845597
-0.808518
-0.964368
-0.313423
-1.45666
-0.726139
-0.2384
1.74502
1.07447
-1.20477
1.30911
-0.0650681
-0.696275
-1.03455
1.68167
-0.647091
0.0908378
-1.40741
1.34618
1.96816
-0.853424
0.853418
-1.62718
0.773757
-0.00601712
-0.000694288
0.0067115
-0.0237535
0.0292881
-0.00553486
-0.00524637
0.0047405
0.000505942
0.0478773
-0.0571389
0.00926175
-0.00395931
-0.00428477
0.00824444
0.00420192
-0.00816117
-0.0386697
-0.00232649
0.0409961
-0.595667
0.289607
0.306059
-0.0629029
0.0482604
0.0146418
0.0149266
-0.067116
0.0521889
-0.00420592
0.00840801
-0.00557733
0.00178618
0.00379104
0.0188719
-0.00079919
-0.0180728
-0.00108736
-0.00765099
0.00873838
0.00642442
0.00391051
-0.0103349
-0.00250213
-0.00505349
0.00755562
0.00536975
-0.00273665
-0.0026331
0.00575077
-0.000120516
-0.00563016
0.0114487
0.00503163
-0.0164802
0.0268053
-0.0153566
-0.000990185
-0.00381284
0.00480308
0.00361259
-0.00460272
0.638646
-0.444869
0.103851
-0.0410391
-0.0627932
-0.0106504
-0.0104487
0.021099
0.0174395
-0.0268395
0.00939985
-0.00380756
0.00380007
-0.00611055
0.00259376
0.00351669
0.019371
-0.00573473
-0.0136363
-0.0286749
0.00966254
0.0190129
-0.0835712
0.0132314
0.0703389
0.00409624
-0.00779414
0.00369768
-0.005428
0.00568475
-0.000256704
0.101749
-0.0366502
-0.0650959
0.0113839
0.0361047
-0.0474895
0.0291781
-0.0239383
-0.00523989
0.000596777
-0.018076
0.0174791
-0.0575493
0.0152045
0.0423443
-0.0379883
0.0528487
-0.0148607
0.00321834
-0.00766749
0.00444924
-0.00601127
-0.00214965
-0.00599295
-0.00727917
0.0132727
-0.0102777
-0.0311673
0.0425512
0.040407
-0.0715745
-0.00324043
0.00977025
-0.00652984
0.0303657
0.00899861
-0.0393644
0.0124317
-0.00348687
-0.00894483
0.00408393
-0.00408358
0.00801677
-0.0262164
0.0181996
-0.00627708
0.0027177
0.00355934
0.0485419
-0.0362494
-0.0122928
0.0292921
0.0326408
-0.0619337
0.0560951
-0.0268031
-0.00265758
-0.00361957
-0.0183382
0.0207911
-0.00245298
-0.00546146
-0.0128768
0.00377833
-0.011057
-0.00533387
0.00697281
-0.00163894
0.00371581
-0.00579379
0.00207775
-0.0257735
0.0407003
0.0212499
0.011282
0.00758994
0.0187474
-0.0136626
0.017623
-0.00396028
0.229443
-0.198369
-0.0310343
-0.00575344
0.00374404
0.00200939
-0.639463
0.356301
-0.020129
0.0146675
0.0940338
0.465692
-0.559727
0.0536276
-0.0704667
0.0168387
-0.00392182
0.00553388
0.0083053
-0.0138391
0.00112837
-0.00112827
-0.0495191
0.472686
-0.423172
0.0138372
-0.00223529
-0.0116021
0.00717535
-0.0020958
-0.00507945
0.00542094
0.000329962
0.0060266
-0.0170402
0.0110137
0.0141773
-0.0147504
0.000573074
0.0100361
0.00414109
-0.0251681
0.0515831
-0.0264154
0.00246273
0.00471272
-0.00359296
-0.00216039
-0.00532217
-0.011735
0.0170572
0.00218248
0.00856104
-0.0107435
-0.0020328
0.00580285
-0.00377022
-0.00605159
0.00401874
0.00458354
0.0012192
0.00128821
0.0155121
-0.0168005
-0.00976809
-0.0300935
0.0398612
-0.00949548
-0.0375563
0.0470515
-0.439085
0.367131
0.0719486
-0.033141
-0.00484762
0.0179365
0.0300157
-0.0479526
0.0166558
-0.00338266
-0.013297
0.0127325
0.000564693
-0.011412
-0.00188486
0.0195406
-0.0095044
-0.030828
0.0222234
0.00860482
-0.00308799
0.00606555
-0.00297739
-0.0127202
0.0431008
-0.0303812
0.0358216
0.0248274
0.0182719
-0.00239076
0.0261203
-0.0237289
0.0173479
-0.0160595
0.0149572
-0.00746657
0.0183431
-0.0108765
0.00296772
-0.0174265
0.0144587
-0.00945872
-0.0091076
0.0185664
0.0100615
0.00659415
0.000602738
-0.00251369
-0.0266363
0.0192122
0.00742404
-0.0228319
0.0247585
-0.00192666
-0.0494683
0.0439707
-0.00102458
-0.00508604
-0.00409571
0.00457203
-0.000476325
-0.0212397
-0.574431
0.0410412
0.0183462
-0.0593858
-0.0138547
0.00713163
0.00672308
0.0108652
-0.00722184
-0.00364354
-0.0407982
-0.00590086
0.0466987
0.332255
-0.528206
0.195939
-0.00502143
-0.00525611
-0.0920524
0.232845
-0.140794
-0.926661
0.319149
-0.00573074
0.00654754
-0.000816838
-0.00810643
0.0073072
0.0358658
-0.00067071
0.0275279
0.00833779
0.0254497
0.00866762
0.0121235
0.0116353
0.00195819
0.0101653
0.00053701
-0.0249031
-0.0175359
0.00734306
-0.0169237
0.00958073
-0.0162276
-0.00130826
-0.00888445
-0.0253454
-0.00093235
0.0262777
-0.0413091
0.0135106
-0.246521
-0.192569
-0.0263615
-0.0365421
0.0233488
0.0294997
0.0307728
-0.402602
0.502837
-0.100231
-0.519532
0.514757
0.00134944
-0.00134934
-0.00619167
0.0026644
0.00352731
-0.0492199
0.00842229
0.0048172
0.0243614
-0.4438
-0.482855
0.158232
-0.602025
-0.562204
0.0793537
0.00178278
0.0285828
0.0241184
-0.0259508
0.0018325
0.0241858
-0.0336674
0.00948105
-0.00318527
-0.0115652
-0.0106518
-0.0055471
-0.0060181
0.0641263
-0.148768
0.0846417
0.253268
0.225797
-0.479067
0.352692
-0.0994237
0.569442
-0.0094896
0.0142932
-0.00480322
-0.0117517
0.0123213
-0.00056937
-0.0212412
0.0266146
-0.0114013
-0.0511087
0.06251
0.0382137
0.000732955
0.0268122
-0.0208986
0.0203292
0.00590667
-0.010499
0.00572969
0.00116827
-0.0068979
-0.0013145
0.00598587
-0.00467124
-0.0246338
-0.00404035
-0.0053466
0.0227866
0.0279299
0.0236265
-0.0515561
0.0387248
-0.030161
-0.008564
0.032159
-0.0327851
0.034957
-0.029725
0.00652519
-0.00212437
-0.00440086
0.52011
0.118535
0.586388
-0.0662788
0.888881
-0.424612
0.0803629
-0.00753153
0.0017587
0.00577296
-0.00744681
0.00142976
-0.0101881
0.00685831
0.00332967
0.00164588
-0.011834
0.0122891
-0.00543083
0.00491644
0.0203269
-0.0252434
0.00920869
0.00345723
-0.0126659
0.00838882
-0.00866562
0.000276813
0.00526513
-0.00797791
0.00271276
0.0024312
-0.00652685
0.00685958
-0.0175102
-0.0089847
-0.00668932
0.0156743
0.00625886
-0.0152435
0.00748419
-0.0141734
-0.0219296
0.012433
-0.00559822
0.0324102
-0.00849722
0.0122755
-0.00717705
0.0120935
0.024369
-0.47857
0.545682
-0.0671249
-0.0228454
-0.00410418
0.0269495
0.00159543
0.0187315
0.0146273
0.0169661
-0.043701
0.0267343
-0.0110071
0.0279736
0.00140247
-0.00472929
0.00332666
0.00545292
-0.000869483
0.00685535
-0.0055988
0.768207
0.00574441
-0.773961
-0.055355
-0.51621
0.190109
0.326099
0.0242929
-0.000107273
-0.00182224
-0.0221162
0.0224706
-0.0379587
0.0706178
-0.0326599
0.434379
-0.54451
0.11013
-0.0399132
-0.0315472
0.0714604
-0.0766973
0.0367838
-0.367949
0.597
-0.229031
-0.579807
0.567227
-0.0552491
0.161593
-0.106341
0.0932681
0.136164
0.00317236
-0.0030409
-0.000131553
0.264316
0.117855
-0.382173
0.270117
0.0165677
-0.015971
0.0072238
0.0143079
-0.0215316
-0.0122554
-0.00898572
-0.0340026
0.0245067
-0.0181863
0.0521906
-0.034005
-0.885358
-0.191241
1.0766
0.574749
0.371735
-0.946486
0.471473
0.285351
-0.756825
0.178697
0.292775
-0.507599
0.627332
-0.473936
0.632171
-0.305808
0.39984
-0.44755
0.363468
0.763303
0.00643468
0.0129363
-0.0124613
-0.00120132
0.0297597
-0.0207613
0.00600612
0.0308217
0.0019152
0.00895003
-0.0076928
-0.000121503
0.00781432
-0.00577756
0.00882861
0.513382
-0.0476925
-0.0861844
0.452344
-0.366167
0.427194
0.00163555
-0.00266666
0.00102952
-3.92328e-05
0.00230005
-0.00226091
0.0532974
-0.765909
0.712611
0.00230673
-0.000209001
-0.00209776
0.168845
-0.104718
-0.0377325
1.17855
0.289074
-0.962756
0.67368
-0.00150767
-0.00230224
0.00241654
-0.00392543
-0.753121
0.34348
0.409639
0.574425
-0.863049
0.490716
0.372329
0.0580784
-0.0219737
-0.263627
0.500545
-0.236917
-1.17569
0.556943
-0.00216547
0.00216463
-0.696252
0.675012
-0.00736409
0.00470654
0.771383
-2.01063
0.746527
-0.759703
0.0131725
-0.556015
1.62077
-0.59473
0.6879
-0.0931794
0.385493
0.250024
-0.635521
0.81987
0.00324831
-0.00324861
-0.247409
0.768793
-0.521405
-0.725981
-0.460262
0.797773
-0.62395
0.0285903
-0.0395976
-0.834834
-0.340825
-1.28116
0.829762
0.525779
-0.61484
-1.03556
0.465524
0.0499099
0.465885
0.865945
-1.33185
-0.81988
1.28575
-1.3759
-0.749863
0.351877
-0.683883
-0.0659505
-0.866764
0.00371368
-0.81347
1.33911
-0.815274
0.183272
0.405791
0.00190916
0.00352589
-0.00543514
-0.124704
0.378139
0.198927
-0.882802
-0.368027
0.159349
0.208676
-1.01852
0.62794
0.118585
-0.631654
0.0025932
-0.00278878
0.000195571
-0.957151
0.0299203
0.0547479
0.00725819
-0.458872
0.657766
-0.198904
-0.341938
1.45786
-1.7998
-0.982484
-0.0983554
0.891646
0.513965
-0.017184
-0.0942746
0.0770913
0.83257
-0.500326
0.373695
-1.68383
1.39333
0.89765
-0.41609
0.219722
0.196368
-0.983927
1.83734
-0.73428
0.528829
0.205449
-0.265298
-0.468985
-0.210172
1.22867
-1.43885
0.00191885
-0.000569153
-0.295684
0.772548
0.0490779
-1.3161
0.202077
-0.51519
-0.00113487
0.0011349
-0.0133793
-0.61589
1.54281
-0.18223
0.609386
0.0526468
0.0491056
-0.0225008
0.0551417
0.244241
0.12289
-0.17185
0.0110327
0.615945
-0.610212
-0.56059
-0.293862
0.90216
-0.416225
0.00328694
-3.94089e-05
0.650065
0.0266615
-0.489549
-0.59708
-0.0268731
-0.902852
0.30577
-0.530523
0.709451
-0.439989
0.562878
-0.733855
-0.27045
0.490172
-1.34944
-1.49579
0.648425
-1.0354
0.0535323
0.0025627
-0.249309
0.829433
-0.580129
0.0347984
-0.108437
0.0541409
0.0543004
-0.0552157
-0.0532204
-1.1841
1.04187
0.142221
0.23165
-1.26705
0.827536
-0.356561
0.028487
0.240657
-0.269145
-0.0921878
0.120675
-0.00800037
0.0226278
0.0163685
0.0169717
0.00486185
-0.39119
-0.571568
-0.622433
0.0928433
-1.57546
-0.022716
-0.0633362
0.763796
-1.51479
0.750992
-0.86566
1.62946
-0.743412
0.21712
0.169148
1.24361
1.57546
0.169551
0.0437432
-0.0299846
-0.0137587
0.00749344
1.64398
-1.02932
0.912849
-0.29027
0.00763366
-0.101908
-0.0766568
0.0842909
0.878759
0.197838
0.687451
-1.06738
0.642763
-0.379926
-0.939056
0.484537
-0.662792
0.0453524
0.814142
0.523869
-0.583971
-0.897564
0.31359
-1.08676
0.534002
-0.0472461
0.124339
0.0370444
0.157719
-0.0050041
0.00471443
0.000289579
-0.0030949
-0.153581
-0.580281
-0.400106
0.0189846
1.58399
1.08644
0.000934047
-0.00445183
0.00351784
-0.00418131
0.00511542
0.00984265
-0.00596862
-0.00387404
0.00254249
0.00730016
-0.00355175
0.00666888
-0.0031172
0.00616491
0.000946468
-0.00711141
-0.000228322
0.0084058
-0.00817748
0.00588463
-0.00666694
0.000782307
-0.00362906
-0.00283427
0.00646334
0.000732165
-0.00575502
0.00502286
-0.00452702
0.00224485
0.00228215
0.0021638
0.00717673
-0.00934055
-0.00119408
0.00901426
-0.00782006
-0.00914545
0.00398937
0.00515606
-0.00137631
0.00856208
-0.0071858
-0.0141149
0.013514
0.000600858
-0.00699485
0.00367808
0.00331671
0.00818747
-0.00830206
0.000114536
-0.0139884
0.0116452
0.00234327
-0.00366634
0.00164016
0.00202604
0.00642752
-0.00762156
-0.0127284
0.00204946
0.0106789
-0.00622884
-0.0064996
-0.0066693
0.00199896
0.00467035
0.00140286
-0.00807215
0.00582608
0.00258826
-0.00841432
-0.00671753
0.0011813
0.0055362
-0.00163617
-0.00508135
-0.000816948
0.00585104
-0.00503409
0.00952503
-0.00928267
-0.000242363
0.00781455
0.00171046
-0.00601738
-0.00244486
0.00846224
-0.00427368
0.00500585
-5.22574e-05
-0.00494528
0.00499754
0.0020443
0.0041915
-0.0062358
-0.0066707
0.00672182
-5.11323e-05
-0.00299482
-0.00367588
0.00587624
-0.00751242
-0.0103509
0.00218262
0.00816832
-0.00316602
-0.00718493
0.00105529
-0.0050284
0.00397306
0.00427778
0.000154941
-0.00443273
0.00295532
0.00132246
-0.0100929
0.0169523
-0.00254427
0.00473288
-0.0021895
-0.00606664
-0.0011947
0.00726129
0.000664065
-0.00673071
0.00188639
-0.00341894
0.00153252
0.0231249
-0.0614552
0.0383313
0.0250954
-0.00774915
-0.0173464
0.00156619
-0.0070555
0.0054893
0.00809194
0.000380582
-0.00847253
0.00403248
-0.00275121
-0.00128125
-0.00757074
-0.00129217
0.00886291
-0.0121919
0.00898826
0.0032036
0.00480447
-0.0107722
0.00596776
-0.00786281
0.00159582
0.00626708
0.0133919
-0.00674679
-0.00664519
-0.00376885
0.0171608
0.00157895
0.00738042
-0.00895938
0.00361473
0.00707897
-0.0106937
-0.00627463
-0.00276388
0.0090385
0.00533104
-0.0106166
0.00528559
0.00745742
-0.00723257
-0.000224862
0.00228443
-0.00892397
0.00663953
0.0115716
-0.0224905
0.0109188
0.0040872
-0.00684834
0.00276115
-0.00550847
-0.00133433
0.00684279
0.0102458
-0.00586488
-0.00438093
-0.00616797
-0.000869403
0.00703716
-0.0055279
-0.000292513
0.0058203
0.0148103
-0.336871
0.322063
0.201677
-0.186865
0.00776575
-0.000464693
-0.00730106
-0.000711931
-0.00766144
0.0083734
0.000317291
-0.00353677
0.00321947
-0.00839942
0.00472227
0.00367714
0.00130178
0.00677599
-0.00807776
-0.0101723
-0.00394257
-0.00378952
-0.00638276
0.0108696
0.0142259
0.00873788
-0.00873749
-0.00426583
-0.00383355
0.00809936
-0.00935958
-0.00416582
0.0135254
0.00565986
-0.00155784
-0.00410201
0.00592826
-0.00636683
0.000438636
0.00523398
-0.00407633
0.00789163
-0.00381533
-0.00805266
0.00150108
0.00655158
-0.00312709
-0.00492556
-0.00689833
0.00832811
-0.00832809
-0.00251279
-0.00315298
0.00566576
-0.00760406
0.00657404
0.00103001
-0.00194358
-0.00566048
-0.00394063
0.00680786
-0.00286711
-0.00509389
0.00381077
0.00128311
0.00232699
-0.00742088
-0.0049473
-0.0025102
0.00745744
-0.0111256
0.0048304
0.00629519
-0.00866258
0.00865511
7.45829e-06
-0.00535568
-0.00330691
0.000190096
0.0161743
-0.0163641
-0.0187824
0.0210434
-0.0022611
0.00322317
0.0021465
0.00646649
0.00161856
-0.00808508
0.00798902
0.00686029
-0.0148493
0.0301209
-0.0422537
0.0121325
-0.00874037
0.00940201
-0.000661657
-0.00546623
-0.0106128
0.0160788
0.00748777
-0.0042147
-0.00327309
0.000632968
0.0068548
-0.00377574
-0.0034627
0.00723843
-0.00763078
0.0099152
-0.0120455
0.00577084
-0.00389756
0.00831572
-0.0044182
-0.00121267
0.00325682
-0.0020443
0.00336943
-0.00640282
0.00303332
-0.00926182
0.00257565
0.00668616
0.0112646
-0.00371916
-0.00754545
0.00442696
0.00683765
-0.00610993
0.00223134
0.00387855
-0.00483968
0.00550374
-0.00920477
0.000280784
-0.00559004
0.00299966
0.00481958
-0.00781924
0.00474955
0.00387729
-0.00862686
-0.00346788
0.00922859
-0.00576072
0.00713067
-0.00907426
-0.00747807
0.00626127
0.00121679
-0.00589043
0.00170915
0.00728099
-0.00206517
-0.00521583
0.0105131
-0.0110008
0.000487696
-0.00337703
0.00305035
0.000327234
0.00557735
0.00350963
-0.00908699
-0.00343968
0.0138881
-0.0104484
-0.0113901
0.00516123
-0.00320259
-0.0105915
-0.00475569
0.0153471
0.0120843
-0.0226758
0.0391042
0.00915575
-0.00772809
0.00730849
0.000419657
0.00711808
-0.000212735
-0.00690534
0.00727676
0.00473967
-0.0120164
0.0154597
-0.0575693
0.0421102
0.0438823
-0.028423
-0.00534008
0.00623668
-0.000896607
-0.0236718
-0.0127027
0.0363744
0.0689536
-0.000800924
-0.0681501
-0.00732816
0.0074715
-0.000143348
0.0308706
-0.0128194
-0.0180519
0.0339739
-0.0031035
-0.00286266
0.0064078
-0.00354515
0.00133376
0.01011
-0.0114437
-0.00605565
0.000420676
0.00563494
-0.000266075
0.00792135
-0.00765528
-0.0085339
0.012365
-0.00383113
0.0151518
-0.0103915
-0.0047605
-0.00225422
-0.00359624
0.00585047
-0.00018512
-0.00423981
0.00442493
0.00432329
0.0054945
-0.0098178
0.00643284
-0.000805642
-0.00562722
0.0118704
-0.00783693
-0.0040335
0.00951959
0.00235082
0.00443697
0.00401391
-0.00845089
0.00767072
-0.00184463
-0.001852
-0.00550519
0.00735719
0.00294055
-0.00730961
0.00436906
0.0106962
-0.00815371
0.010106
-0.00786285
-0.00224318
-0.00377777
-0.00179955
0.00669636
-0.00385864
-0.00283783
-0.000298491
-0.00947448
0.00561589
-0.00217888
-0.0049346
0.00711348
0.00978961
-0.0105015
-0.00697069
0.00319494
0.0016238
-0.00698039
0.00535648
0.00572001
0.00738361
-0.00329641
-0.00997085
0.00186183
0.008109
0.00675385
-0.00362428
-0.00312956
-0.00304233
-0.000770465
0.00381272
0.00240854
0.00306567
-0.00547421
0.00795351
-0.005545
0.000275283
-0.00764577
0.00737047
-0.0729204
-0.196828
0.269746
-0.0368136
0.0315946
0.00521876
0.00674381
-0.00166828
-0.00507552
-0.00098425
-0.00637292
0.00199438
0.00437854
-0.00465447
-0.0076774
0.0123319
-0.00263371
-0.00779648
0.0104302
-0.0058362
0.00966876
-0.00383255
-0.00197743
0.00865874
-0.00668133
0.00487841
-0.00211581
-0.00276261
-0.000345995
0.00522441
-0.000254899
-0.00341142
0.00072721
0.00742514
-0.00815237
0.00183581
0.00570046
-0.00753628
-0.000636423
-0.00667973
0.00731613
0.00553147
0.00760195
-0.0131335
-0.000688228
-0.00689182
0.00758004
-0.00617444
0.00548621
0.00397894
-0.0072232
0.00324426
-0.00616101
0.00608592
7.50839e-05
-0.00265244
-0.00350857
0.00678827
0.00397989
-0.0107682
0.420373
-0.230265
-0.00371118
0.0102155
-0.00650438
-0.00888631
0.00286893
-0.00758453
0.00625662
-0.00291654
-0.0033401
0.00498764
0.000231686
-0.00521934
0.00676428
-0.00474409
-0.0020202
0.000252732
-0.00737152
0.00711877
0.000198736
-0.00695816
0.00675943
0.00167513
-0.00772368
0.00604855
-0.00750746
-0.00630187
0.0138093
-0.000413021
0.00637363
-0.00596063
0.00124372
0.00495311
-0.00619685
-0.000917421
0.00819416
-0.0107008
0.00307006
-0.00362188
-0.00897543
-0.00751224
0.00549907
0.00201317
-0.00491747
-0.00259477
0.00650979
-0.00735664
0.000846838
0.00226672
0.00424306
-0.00593638
0.00894637
-0.00301
-0.00774762
0.00181124
-0.00470001
-0.00339265
0.00809265
0.00495745
-0.0158033
0.0108458
0.0107016
-0.00749506
-0.00320656
0.00711658
0.00358507
-0.037627
-0.00104305
0.0069833
0.0023762
-0.00935951
-0.0104057
0.00657714
0.00382852
0.0050184
0.00128947
-0.00630794
0.0124143
-0.00410695
-0.00830742
0.00938043
-0.0114407
0.00206022
-0.0040457
-0.00434208
0.00838777
0.00134513
-0.0104311
0.00908592
-0.00133997
-0.00871895
0.0100589
0.00888243
-0.00512899
-0.00375347
0.00271429
0.00599955
-0.00871386
-0.00259161
-0.00733624
0.00992784
-0.00428325
-0.00498045
0.00926369
0.00167942
0.00528755
-0.00696695
0.00526535
-0.00763114
0.00236579
0.00104803
-0.00931146
0.00826342
-0.0246608
0.0192687
0.00539196
0.00767505
-0.0323359
0.00792799
-0.00634489
-0.0015831
-0.00805368
0.00296386
0.00508978
0.00343334
0.00360091
-0.00703427
0.000998411
0.00315711
-0.0041562
0.0582572
0.0208955
-0.0791512
-0.0253139
0.00951111
-0.00816599
0.00431151
0.0021409
-0.00645241
-0.000464621
0.00610387
-0.00563925
-0.0203242
0.0151063
0.00521791
-0.0115218
-0.00880248
0.00317065
-0.00749889
0.00432823
-0.0394874
0.00012306
0.0068163
-0.00727995
0.000463628
0.00399993
0.00526885
-0.00926881
0.00667753
-0.00330714
-0.00337039
0.0182577
-0.010241
0.0105523
0.0055804
-0.0161327
0.00171649
-0.00973658
0.00802008
0.00226339
-0.0118175
0.00955405
-0.00021694
-0.0113262
0.0115431
0.00444679
-0.00835884
0.00391204
-0.009677
0.00387706
0.00579993
-0.00254773
-0.00568505
0.00823278
0.00463799
0.00436708
-0.0090051
0.00737724
-0.00597437
0.00327171
0.00426095
-0.00753267
-0.00798459
0.00347599
0.00450859
-0.0011976
-0.00678699
-0.00681001
0.00867822
-0.00186822
0.00823481
0.000182807
-0.00841763
-0.00180232
-0.00200439
0.00380657
-0.00270287
0.0101189
-0.00741605
0.000901514
0.00819762
-0.00909913
-0.000588249
-0.0101996
0.0107879
0.0085076
-0.0131268
0.00461902
-0.00990214
0.00224071
-0.007973
-0.00192912
-0.0064912
-0.00270804
0.00919926
0.0052968
-0.00891715
0.00362035
-0.00773046
-0.00206027
0.00979073
-0.00700326
-0.00887029
0.00345348
-0.00557203
0.0021187
-0.00153475
0.00412849
-0.0182831
0.00646902
0.0118141
0.0075748
-0.00185965
-0.00571516
-0.00478583
0.00651354
-0.00172772
0.0111804
-0.00179997
0.00862287
0.00255752
0.0106144
0.00670449
-0.00612868
-0.000575839
0.00117651
0.0048147
0.0355916
0.0110293
-0.00439258
-0.00663668
0.00723491
-0.0079152
0.000680289
0.00120629
0.00602861
0.00897148
-0.00878044
-0.00019105
0.00523057
0.0037409
-0.00632082
-0.0124617
-0.0100897
-0.00274484
-0.00971684
0.00781728
-0.00299636
-0.0048209
-0.00667598
0.00507835
0.00159765
0.00248731
0.00471399
-0.00720123
-0.0114635
0.00368079
0.00778275
-0.00494198
-0.00525439
0.0101964
-0.0228153
-0.0178925
0.0407078
-0.00769932
0.00507405
0.00262525
-0.0045771
-0.00312224
0.0110427
-0.00831038
-0.00273319
0.00234493
0.00743234
-0.00977728
-0.0071451
0.00691677
0.00256174
-0.00825071
0.00568896
-0.00638477
0.00399455
0.00239023
-0.00186425
0.00353814
-0.00167394
-0.00437264
0.0170092
-0.0126367
-0.0256415
0.0212688
0.147795
-0.248023
-0.189075
0.0586462
-0.0273331
-0.0313155
-0.0100071
0.00494143
0.00506564
-0.0103748
0.000367681
-0.00447059
-0.00492361
0.00939418
0.00476914
-0.00923974
-0.0131229
0.0205655
-0.00744269
0.0161653
0.0274708
-0.00690544
-0.0177147
-0.0297917
0.0475058
0.0185339
-0.0362487
0.00015748
0.00669774
-0.00278201
0.0149418
-0.0121596
0.00741136
-0.0170042
0.00959277
0.000514875
-0.00812196
0.00760708
0.0124799
-0.00391743
-0.00856258
0.0098045
0.00267535
0.00476094
0.0055761
-0.010337
-0.00593278
-0.00792119
0.018296
-0.0103748
0.00450091
-0.00468604
-0.00217507
-0.035703
-0.0156094
0.0513112
0.0246914
-0.0513815
0.0266897
0.00442403
0.00678053
-0.0112046
-0.00371089
0.00813491
0.000860412
0.00592012
0.00391155
0.00473549
-0.00864705
-0.00393425
0.00921097
-0.00527673
0.00444076
0.00337653
-0.00297609
0.00995939
-0.00119966
-0.0022088
0.00340952
-0.00746537
0.0102923
-0.00282692
-0.00486878
0.0105537
-0.00568481
0.00760673
-0.000830724
0.00516188
0.0108194
-0.00121338
-0.00960602
0.00368904
0.00395158
-0.00764062
-0.00941046
0.00677676
-0.00470731
-0.00475621
0.00946352
0.00900808
-0.00390585
-0.00510224
0.00117115
-0.00695269
-0.00363663
0.0105893
-0.0052362
0.00482025
-0.00845689
0.00357912
-0.00852008
0.00494094
-0.00497309
0.00855221
0.00592301
-0.00446461
-0.00145853
-0.00717533
0.00316133
0.00401385
0.00768911
0.000596572
-0.0082857
0.00195627
0.0040878
-0.00604407
0.00428326
0.00472077
0.00692973
-0.00801702
-0.00738481
0.00335518
0.00402962
0.0159561
0.0239486
-0.039905
0.0372172
-0.0208518
-0.0163655
0.00154847
0.00572554
-0.00727401
-0.00431708
0.00586555
0.000536037
0.00518951
0.00968176
-0.00523498
0.00281791
0.00619178
-0.00900971
0.000128303
-0.00496801
0.00598163
-0.0020027
-0.00697074
-0.0104608
0.00810834
0.0023525
-0.00977588
0.00950979
0.00517198
-0.000805051
-0.00436693
-0.00015345
0.0122377
0.0114181
0.0078752
0.0043625
0.00703055
-0.0101966
-0.0025647
-0.00793311
0.0104978
0.0134567
0.0020054
-0.0154629
0.0110937
0.00652923
0.0185051
-0.00242624
-0.00539496
0.00782113
-0.00572364
0.00329738
0.00477213
-0.00596679
-0.0100488
-0.0288608
0.0389095
-0.000358272
0.0078703
-0.00751204
0.0103252
-0.00881024
-0.00151499
-0.0150443
-0.00120291
0.0162472
-0.0447181
0.0198262
0.0248917
0.0357911
-0.0274091
-0.00838219
0.00317581
0.00627284
-0.00944866
0.0149621
-0.0197178
-0.00135618
0.00579692
0.0039139
-0.00527009
0.00527244
0.000524436
0.00436622
0.00403957
-0.00412401
0.00849023
-0.00296701
0.00700658
0.00958137
-0.0211032
-0.00673204
0.00447781
-0.00550829
0.00254573
0.00296257
0.0016098
0.0223024
-0.0258148
0.00351236
-0.00716922
-0.00395631
0.00551229
0.000372334
0.00469534
0.00680517
0.00781098
-0.00524925
-0.00663473
0.0066324
-0.0300709
0.003365
0.0267059
0.00329808
-0.00621365
0.0029156
0.00675153
-0.00174837
0.00437734
-0.00262918
-0.00175689
0.00175721
0.0208114
0.0164056
-0.00763723
0.00595861
0.00167861
0.0316286
-0.00212912
0.00566543
0.00475857
-0.010424
-0.00332827
0.0089937
0.00273732
0.00643998
-0.00917734
0.00659758
-0.00157918
0.00839424
-0.00819548
0.0373508
0.0174871
-0.054838
-0.0044693
-0.00471272
0.00918197
-0.0129489
-0.00209551
-0.00130114
-0.0116478
0.0139322
-0.0160277
-0.00568833
0.00029333
0.024609
0.00369373
-0.0283029
0.00804915
0.0165597
-0.025225
0.0289187
-0.00199888
0.00789652
-0.00589765
0.00241888
0.00593297
-0.00835186
-0.00403921
0.00403861
-0.00534066
0.00639975
-0.00105917
-0.00546116
-0.0352251
0.0171733
0.0180517
-0.0129229
-0.00846815
0.00319446
-0.00319328
-0.00370603
0.00370509
-0.00491742
0.0129016
-0.00798419
-0.000500202
-0.0067841
0.00728413
-0.00701303
0.00558824
0.00142461
0.002204
-0.00443087
0.00222669
0.00505969
-0.00232066
-0.00273907
0.00726372
-0.01026
0.00769531
-0.00634906
0.00609234
0.000256775
-0.00410455
-0.00161916
0.00698637
-0.00896379
0.00302164
-0.00302207
0.00343416
0.00423657
0.00504396
-0.010877
0.00243071
0.00844635
-0.0146494
0.000979635
0.0136698
4.62582e-05
-0.0105137
0.0104674
-0.00700622
-0.00741149
0.0144177
0.00582361
-0.00288306
0.00167784
-0.00582925
0.0041514
0.0261544
-0.00224056
-0.0239141
0.0222857
0.00518499
-0.00570146
0.00631471
-0.000613254
-0.0102335
0.00557907
-0.013437
0.0032035
0.0128238
-0.00724479
-0.00971396
-2.26262e-05
-0.00583575
-0.00387822
-0.000745913
0.00624498
0.0157965
0.0102896
-0.0260862
0.00390401
0.00626492
-0.0101689
0.00693961
-0.0151052
0.00816561
0.00430211
-0.00430138
-0.00964825
0.00266194
0.00698631
0.00391534
-0.0079989
0.00408355
0.00291801
-0.00291809
0.00814784
-0.00580291
-0.0116478
0.0112465
0.000401309
0.00459316
-0.00694097
0.00234785
-0.009013
0.0110624
0.00217488
-0.00673762
0.00456274
0.00591892
-0.0070913
0.00555996
0.00153133
0.00723364
-0.00125758
-0.00597596
-0.0188041
0.0226912
-0.0038871
0.0187275
0.000971867
-0.0196994
0.00926813
0.00424591
0.0090512
0.0111855
-0.00261833
-0.00957355
0.00486037
-0.0074787
-0.000951788
-0.0086218
-0.00455586
0.00535687
-0.000801003
0.00489965
0.00104096
-0.00594061
-0.00575669
0.00575531
0.00439731
0.00382752
-0.00822462
0.00207465
-0.00207472
0.00651118
-0.010417
-0.00613506
0.00721031
-0.00107529
-0.264971
0.0635229
0.201448
-0.1722
0.243428
-0.0712301
-0.437172
0.30695
0.010199
-0.0018583
-0.0083407
-0.00643908
0.00278774
0.00365138
-0.00184591
-0.465471
0.315032
0.150439
-0.147291
-0.318181
-0.00160748
0.0111271
-0.00134454
-0.0133049
0.0130021
-0.00709267
-0.00590948
0.0116576
-0.00467959
0.00582864
-0.00114911
-0.00447085
-0.0070342
0.011505
-0.00663647
0.00478447
-0.00639856
-0.00192528
0.00832382
0.0213275
0.00279086
0.00137147
-0.0201756
-0.0178462
0.0319832
-0.0141371
0.0161277
0.0021914
-0.00304303
0.00304291
0.00160231
0.00591102
-0.0075134
-0.00562077
-0.00221042
0.00783112
-0.00401844
0.00370057
0.00172471
0.00495282
0.00662437
-0.0112461
0.0136048
-0.00235884
0.00182803
0.0169012
-0.0187293
0.0218967
-0.0200687
0.000625726
-0.00534945
0.00472371
-0.0261325
0.00177938
0.0243534
-0.018941
-0.00719139
0.0221318
-0.0203522
0.00391524
0.00319864
-0.00711391
0.00614659
0.00656807
-0.00981636
0.00105488
0.00876152
-0.00719318
-0.00262317
0.000143822
0.0528966
-0.0530411
-0.007552
-0.0225189
-0.00231762
-0.00292883
0.00233696
-0.004355
0.00201801
0.000980837
-0.00722636
0.00624555
-0.00599213
0.00697298
0.00441886
0.0126728
-0.0170917
-0.0131175
-0.00475161
0.0178691
-0.00869868
-0.0051479
0.0074828
-0.0023349
-0.00536063
0.00667463
0.000559043
-0.0275876
0.00590974
0.0216776
-0.0167005
-0.0108871
0.0317959
-0.0258864
0.0203307
-0.018548
-0.00562012
-0.0010975
0.00109784
0.00435136
-0.00073882
0.000883207
0.00346803
-0.0082774
-0.00872669
-0.0110594
0.00147098
-0.00147099
0.00229681
-0.00229604
-0.00133432
0.00133505
0.00616621