/*--------------------------------*- C++ -*----------------------------------*\
  =========                 |
  \\      /  F ield         | OpenFOAM: The Open Source CFD Toolbox
   \\    /   O peration     | Website:  https://openfoam.org
    \\  /    A nd           | Version:  6
     \\/     M anipulation  |
\*---------------------------------------------------------------------------*/
FoamFile
{
    version     2.0;
    format      ascii;
    class       volVectorField;
    location    "300";
    object      U;
}
// * * * * * * * * * * * * * * * * * * * * * * * * * * * * * * * * * * * * * //

dimensions      [0 1 -1 0 0 0 0];

internalField   nonuniform List<vector> 
29884
(
(7.44733 0.0689031 -9.57319e-17)
(5.29712 0.0289408 7.5987e-17)
(5.40933 -0.115475 5.21847e-17)
(7.10583 -0.0785104 2.59076e-18)
(7.22106 0.100956 -2.73068e-17)
(5.74624 0.155641 6.44997e-17)
(7.84743 -0.10294 -4.12316e-19)
(7.3492 0.0068926 4.36299e-17)
(4.72359 0.12593 3.50646e-17)
(7.13554 0.0171299 8.17656e-17)
(7.44183 0.00698771 -3.45075e-17)
(7.20143 0.195134 1.52803e-17)
(8.08075 -0.133933 -2.7139e-17)
(7.10888 -0.107599 2.4664e-17)
(7.13942 0.10459 -3.41007e-17)
(4.40541 -0.0559733 8.84152e-17)
(8.17302 0.0598473 -3.54999e-17)
(6.71583 0.197845 -5.94774e-17)
(6.56549 0.167188 0)
(4.21305 -0.00448163 -1.63038e-16)
(7.83663 0.215914 1.44438e-16)
(4.9402 -0.0375174 0)
(8.00585 -0.0641208 -4.83772e-18)
(7.11438 -0.0216713 0)
(7.06985 -0.0140885 0)
(7.59054 0.0344513 -3.03507e-17)
(7.82818 0.0170615 0)
(8.03637 -0.0297153 7.54424e-17)
(5.1426 -0.0257024 1.01081e-16)
(5.17347 0.119385 7.13606e-19)
(5.41682 -0.0109105 -2.91263e-18)
(4.84188 0.0855657 4.55735e-16)
(8.01142 0.0484188 -2.22969e-17)
(7.4604 -0.0374967 0)
(7.28043 -0.0657502 -7.42057e-17)
(7.51089 -0.109979 6.00483e-17)
(5.05096 -0.0261525 2.14825e-17)
(7.60305 0.108976 8.08887e-18)
(5.40157 0.14094 -5.63928e-17)
(7.85302 -0.126053 -1.82442e-17)
(5.0796 -0.0434812 0)
(7.08293 0.0640794 6.63737e-18)
(7.63825 0.177195 -4.3661e-17)
(7.26897 0.275188 -2.88188e-16)
(6.9469 -0.0233962 1.35026e-17)
(7.60583 -0.106938 -7.57674e-18)
(8.01127 -0.165604 0)
(7.76453 -0.1034 -4.12223e-18)
(4.8136 0.035136 8.57693e-19)
(8.37089 0.082827 0)
(7.38162 0.122231 0)
(7.19691 -0.0779352 -3.96846e-19)
(4.70958 -0.151686 4.37079e-17)
(8.38929 0.0489896 1.11439e-16)
(7.17773 -0.0521746 -9.04807e-17)
(7.07726 -0.123831 5.83985e-17)
(4.42812 -0.0177582 1.00521e-18)
(8.01474 -0.0413411 0)
(6.69759 0.0582447 6.10696e-17)
(6.92104 -0.133226 -9.23047e-17)
(7.80691 0.172128 -1.69829e-17)
(7.85664 0.0016508 2.26316e-17)
(4.70951 -0.0994848 0)
(8.12699 0.0427003 -5.19904e-17)
(7.11592 -0.0716565 3.03964e-17)
(6.99651 0.0750745 -6.94951e-18)
(7.54216 -0.0324095 4.44527e-18)
(7.91238 -0.102385 2.40658e-17)
(7.46945 -0.0790915 -1.10284e-17)
(7.38449 0.0564752 3.8684e-17)
(7.24762 0.194548 4.20534e-17)
(7.67374 0.0634482 -1.38348e-17)
(7.51799 0.101268 0)
(5.63225 -0.139246 0)
(7.33334 -0.0911349 -1.10618e-17)
(6.95449 -0.0870148 -2.4775e-17)
(8.16724 0.113443 0)
(7.91012 -0.115906 0)
(8.1186 -0.109111 0)
(5.16421 0.0350655 0)
(7.75898 -0.0745805 2.94973e-17)
(5.17474 -0.0512263 0)
(7.01569 -0.053445 0)
(7.03245 0.0689426 2.45711e-17)
(6.37205 -0.0144583 -2.01822e-17)
(4.72961 -0.643175 -8.1899e-18)
(7.34963 -0.01156 0)
(7.58639 0.0043174 0)
(7.22134 -0.0479711 3.52214e-18)
(3.81863 -0.926678 1.68766e-17)
(7.21873 -0.129514 0)
(7.87427 -0.188328 -1.63033e-17)
(4.74883 -0.25533 -4.64807e-17)
(3.47615 -0.777254 0)
(7.15969 0.0935791 -3.65837e-17)
(2.01701 -0.44976 0)
(6.99621 0.012301 -7.12205e-17)
(7.00757 0.00973665 9.47475e-17)
(7.464 0.0398452 -1.03365e-17)
(3.53574 -0.624035 0)
(7.01733 0.0250221 4.57679e-17)
(6.95087 0.0558904 1.01687e-16)
(7.65515 0.0543154 0)
(7.76546 0.055027 -9.05188e-18)
(7.343 -0.0632801 -2.28751e-19)
(8.12395 -0.0912744 0)
(3.98195 -0.739083 1.36439e-17)
(3.88855 -0.0860315 -3.47455e-17)
(7.17624 0.0965313 -4.03267e-17)
(7.07188 -0.268703 0)
(7.48102 -0.174802 0)
(1.99457 -0.276775 3.66156e-17)
(7.19739 -0.021858 2.15747e-18)
(7.04249 -0.0382315 0)
(7.25742 -0.0745167 -5.95605e-18)
(6.99593 0.0795322 -2.46898e-17)
(7.18783 0.087579 0)
(7.089 -0.123454 0)
(6.87403 -0.100915 0)
(6.79001 -0.302563 2.6532e-17)
(7.00339 0.00505463 0)
(6.97644 -0.267343 1.47034e-17)
(7.41411 -0.140795 2.53876e-17)
(6.82468 0.145803 0)
(7.17203 -0.0127423 1.19581e-17)
(7.04683 -0.174715 -5.80572e-17)
(7.8242 -0.242535 5.04361e-19)
(7.96783 -0.00511145 1.03224e-17)
(6.87376 -0.214451 -4.87047e-19)
(7.03124 0.0997949 0)
(6.82919 0.115342 1.09384e-17)
(6.99926 0.0797348 -1.23607e-17)
(6.98105 -0.0931047 3.72344e-17)
(8.14031 -0.0945154 0)
(6.71649 -0.0607641 0)
(7.40878 -0.0693727 0)
(7.6636 0.226022 0)
(7.34812 -0.0485402 -2.57948e-18)
(7.54698 -0.0995441 -2.09072e-18)
(7.55194 -0.0839363 1.03235e-17)
(7.39077 -0.0590744 0)
(7.37134 -0.0286107 1.73638e-17)
(7.78214 0.130993 -1.2766e-17)
(7.74777 -0.18235 -8.28181e-18)
(7.98032 -0.150878 -9.13546e-18)
(8.00247 -0.172789 8.99344e-19)
(7.76682 -0.139245 1.69176e-17)
(7.5297 0.147028 4.63061e-17)
(7.85602 0.102254 -3.85343e-17)
(7.78822 0.187285 4.07073e-17)
(7.68764 0.101905 0)
(4.49835 -0.271738 -2.20233e-17)
(4.12899 -0.121487 0)
(7.94434 -0.104664 -3.8028e-18)
(7.85933 -0.201089 4.63243e-18)
(7.91716 -0.135239 0)
(7.97208 -0.154719 -1.46744e-18)
(7.87757 -0.164262 0)
(7.93085 -0.102996 0)
(7.9554 -0.146247 0)
(7.92937 -0.12291 -7.27318e-18)
(7.12646 -0.00166855 2.64318e-17)
(7.05154 -0.0681366 -2.68042e-17)
(7.62887 0.173796 -6.96262e-17)
(0.903005 -0.0612307 -1.33836e-16)
(0.85887 -0.00517741 7.36019e-21)
(4.90279 -0.0732126 0)
(4.69486 -0.00898221 0)
(7.00886 0.0332 -4.13035e-17)
(7.8314 0.180103 4.24599e-17)
(7.30326 0.0381256 -1.30882e-16)
(6.98494 0.0821358 0)
(6.97752 0.0583331 0)
(6.66332 0.0113578 -1.69989e-17)
(6.84879 -0.0148451 0)
(7.1278 -0.168825 6.25182e-18)
(6.94959 -0.243982 -4.4421e-17)
(5.10461 -0.0330476 3.6357e-17)
(7.08351 0.121702 -3.54373e-17)
(7.34417 -0.165823 -3.5785e-18)
(7.09819 -0.241546 -9.26731e-18)
(6.49905 -0.388059 -2.37223e-18)
(6.48399 -0.306763 2.91616e-17)
(6.58248 -0.234995 4.75739e-18)
(7.0519 -0.0440938 7.08884e-18)
(7.20769 -0.0924361 0)
(7.06567 -0.0260607 -5.43072e-17)
(6.98726 -0.00652828 3.55604e-17)
(7.3738 -0.189884 -1.37638e-18)
(7.04454 0.0674079 2.493e-17)
(7.41116 -0.117337 0)
(6.68229 -0.107533 1.98149e-17)
(6.56672 -0.166295 -4.21409e-18)
(7.23889 0.129484 1.79739e-18)
(7.34317 0.102753 -9.25986e-19)
(7.07192 0.120845 0)
(6.88096 0.13814 0)
(7.37194 0.04652 3.15817e-17)
(7.61397 -0.0231392 -1.12642e-17)
(7.46736 -0.133148 0)
(6.83649 0.0185394 0)
(7.65833 -0.0561065 0)
(7.53797 0.0498943 3.31703e-17)
(7.17373 -0.0203841 -3.33471e-17)
(7.37932 0.0581629 -9.39011e-17)
(6.72109 -0.296203 0)
(7.35953 -0.0467141 0)
(7.10375 -0.0778793 0)
(7.23778 -0.013088 0)
(7.81754 -0.104564 0)
(7.67112 -0.0962371 0)
(7.85206 0.0797312 0)
(8.05239 -0.0651353 0)
(4.71604 -0.0782659 0)
(6.99168 -0.0836597 0)
(3.9043 0.129573 -1.6986e-19)
(6.00077 2.57914 -1.02893e-18)
(2.95924 -0.90027 1.04394e-18)
(6.66828 2.57814 0)
(2.82725 -1.57052 -1.44275e-20)
(2.74742 -1.5414 1.35678e-17)
(6.38503 -2.10819 4.97124e-18)
(6.82272 0.247583 0)
(6.68732 2.11956 0)
(4.35067 -0.999685 -1.90672e-17)
(2.68711 -1.61875 -1.34452e-20)
(3.10014 -1.55763 1.48868e-18)
(3.16319 -0.615635 0)
(2.2509 -4.2375 6.19873e-18)
(7.22759 -1.80304 0)
(5.17211 -3.8991 -8.10467e-20)
(2.86702 -1.55925 1.62566e-18)
(3.52402 -1.17664 -1.4482e-20)
(4.49669 -2.13238 -2.4374e-18)
(4.66019 -2.12442 -2.19388e-18)
(3.48829 -0.977733 3.23486e-19)
(3.38863 -0.937401 -4.0864e-19)
(6.77081 0.176731 -7.2801e-17)
(4.35333 -0.249117 0)
(3.19581 -1.94152 -5.9442e-18)
(3.46536 -1.72811 0)
(1.65346 -0.90799 0)
(3.63272 -0.17323 -8.20919e-19)
(3.85927 -2.31511 5.37314e-18)
(3.92425 -1.45971 -3.32599e-18)
(6.38849 1.68689 0)
(3.48662 -1.82066 1.49163e-18)
(2.82878 -1.3468 0)
(5.38166 -0.713171 1.98386e-18)
(5.60921 -0.963775 -7.9492e-18)
(4.44225 -1.62333 -4.486e-18)
(5.79674 2.89244 9.71288e-20)
(6.25742 2.20403 2.56502e-18)
(6.20226 2.35283 -3.47535e-18)
(2.68031 -1.19153 0)
(2.72435 -1.40615 7.37897e-20)
(3.00119 -1.53214 -1.74487e-17)
(2.90191 -1.47163 -2.42962e-20)
(5.80091 -0.963256 -3.80987e-18)
(6.04794 -0.952812 3.40082e-18)
(6.621 -2.27598 0)
(5.95722 2.44194 3.92368e-18)
(3.67642 -2.76298 -2.34046e-18)
(2.33331 0.996938 -3.59725e-17)
(5.68373 2.76879 0)
(2.84936 -1.74482 0)
(5.78124 -1.63732 1.01986e-17)
(6.47658 1.82487 3.01089e-18)
(6.52992 1.88054 7.19209e-19)
(2.76898 -1.7247 0)
(5.92046 2.92448 -2.67922e-19)
(5.92738 2.89509 2.64851e-19)
(3.05076 -1.44748 8.84323e-18)
(3.02703 -1.88438 2.27285e-19)
(2.90346 -1.90009 1.81917e-18)
(4.091 -1.18839 3.88959e-17)
(3.86683 -1.13904 0)
(3.17711 -0.750836 0)
(3.29167 -0.828791 4.79651e-19)
(3.50687 -2.15006 2.94967e-18)
(4.0068 -0.187068 0)
(3.4954 -1.51602 -3.7443e-19)
(6.98854 -0.339659 6.21604e-18)
(5.9431 2.88958 0)
(6.65279 0.129774 4.75026e-17)
(6.24801 2.03126 0)
(6.29194 2.10017 0)
(4.675 -2.84703 0)
(0.844567 -0.418212 9.05158e-17)
(6.89205 0.246049 -7.45745e-17)
(3.00467 -0.428386 -9.30899e-18)
(3.43387 -1.31687 1.3691e-18)
(3.49276 -1.23139 -6.45584e-19)
(3.56237 -2.3888 -1.62152e-18)
(5.01909 -2.65686 -9.38241e-19)
(4.97208 -2.59393 -2.76755e-18)
(6.0691 2.32183 5.24601e-18)
(3.4331 -1.37189 -2.18378e-18)
(3.46497 -1.46458 7.94549e-19)
(3.80269 -2.07695 -2.42043e-18)
(6.58044 -3.54967 0)
(3.24041 -1.6446 0)
(3.33541 -1.62727 0)
(3.32201 -1.67332 0)
(3.27307 0.34356 -1.62117e-17)
(3.90506 -1.83166 8.37466e-18)
(4.32146 -1.44709 0)
(6.26835 0.0183745 -1.42622e-17)
(6.16228 2.32885 -8.44322e-19)
(6.1378 2.21551 -2.93162e-18)
(6.19183 2.23456 -3.34612e-18)
(6.10512 2.31437 -6.73187e-18)
(2.98222 -1.68475 -1.95441e-17)
(3.38213 -2.62645 1.10774e-18)
(3.48315 -2.67969 -2.29362e-18)
(5.0424 -2.55096 4.4373e-18)
(4.52502 -1.82628 0)
(3.23082 -1.47271 1.42539e-18)
(6.09499 -1.4191 -2.77388e-18)
(5.79525 -1.51558 -6.64032e-19)
(6.00465 -1.24178 2.2222e-18)
(3.53308 0.0169389 0)
(3.39639 0.249873 -1.61048e-17)
(3.37058 0.0563218 0)
(5.35938 -2.63855 -1.49041e-18)
(5.9368 2.95472 2.83381e-19)
(3.08095 -1.97388 -1.29619e-17)
(3.0019 -1.76606 1.73206e-17)
(3.11907 -1.78266 2.10001e-17)
(2.93297 -1.96476 6.13672e-18)
(6.28116 2.47757 1.66545e-18)
(6.35775 2.41641 -2.38413e-18)
(6.32625 2.38652 5.02874e-19)
(6.33225 2.49757 5.80788e-19)
(3.6805 -0.0691875 1.57979e-18)
(3.79746 0.174562 -9.08608e-19)
(6.84047 0.221359 -2.35954e-19)
(4.11566 -0.427053 -2.89773e-17)
(2.95534 -0.746174 -1.896e-17)
(2.91721 -0.976134 0)
(5.11589 -1.34793 -4.35369e-18)
(7.57491 -0.313978 -3.29906e-17)
(2.88033 -1.34876 5.52959e-18)
(6.06716 -0.935837 -1.53068e-18)
(7.1357 -0.161606 -2.43147e-18)
(2.92635 -0.601523 0)
(3.03859 -0.602749 1.79317e-17)
(3.00382 -0.52817 7.09217e-20)
(2.96957 -0.643688 -5.15815e-18)
(3.75766 -0.190332 2.94919e-19)
(3.74876 -0.357502 0)
(3.54035 -0.111667 -6.28917e-18)
(5.91732 2.94443 0)
(5.92516 2.95342 0)
(5.90582 2.96885 7.61796e-19)
(3.42844 -0.516535 0)
(3.24702 -0.512939 3.08524e-17)
(3.20693 -0.173713 0)
(3.21425 -0.386511 -3.31587e-17)
(3.28792 -0.251365 0)
(3.58166 0.449709 -5.99443e-18)
(3.82315 0.14128 3.44616e-17)
(6.32443 0.0687419 -5.19806e-17)
(6.692 2.00035 -2.37591e-18)
(6.1888 2.41318 1.28521e-18)
(6.23898 2.47131 -2.6766e-18)
(6.86783 -0.540429 2.83456e-18)
(6.88504 -0.353575 0)
(0.912603 0.336298 0)
(2.7451 -0.547426 -7.9029e-18)
(4.89579 -1.41692 0)
(4.53516 -1.52242 -1.29694e-17)
(7.1481 -0.180715 3.18649e-18)
(7.19128 -0.180484 -1.64766e-18)
(7.1076 -0.201738 0)
(5.92842 2.51662 2.26914e-18)
(5.90125 2.6343 1.21067e-18)
(5.16636 -1.851 3.01988e-19)
(5.11381 -2.66006 0)
(5.27313 -2.65066 1.92822e-18)
(5.13991 -2.73539 2.17456e-18)
(5.42252 0.0631644 8.84894e-17)
(6.69 -0.46712 -3.58523e-17)
(6.71911 -0.558619 0)
(6.75859 -0.388764 -1.54211e-17)
(3.88439 -1.89803 0)
(4.23417 -1.91746 5.1189e-18)
(4.11655 -1.97881 -1.86707e-21)
(3.96604 -1.8671 -5.5017e-18)
(4.40177 -0.486588 0)
(4.15677 -0.258436 -1.93975e-18)
(4.07464 -0.451822 -3.01119e-17)
(4.4192 -0.352574 0)
(4.45594 -1.98043 2.19166e-18)
(4.67177 -2.06912 -4.30068e-20)
(4.61758 -1.92415 -1.84502e-18)
(3.51695 -0.483165 1.42262e-18)
(3.37225 -0.586096 0)
(3.87028 -1.53491 0)
(3.62376 -1.66107 -7.46344e-18)
(4.12395 0.251394 -5.067e-19)
(3.82896 0.610781 -7.64148e-18)
(4.47608 -0.676821 -5.4734e-19)
(4.21123 -0.766575 1.63129e-17)
(4.36285 -0.792055 -1.04618e-17)
(4.39746 -0.570978 9.41141e-18)
(2.69675 -2.1429 -1.47935e-18)
(6.72875 0.190107 8.79419e-18)
(6.72308 0.164012 0)
(6.90514 0.1069 0)
(6.84456 0.132172 5.0624e-18)
(4.0846 0.554211 0)
(3.95438 0.282881 0)
(2.99728 -0.229533 -2.22446e-17)
(2.99145 -0.114891 1.27175e-20)
(2.90013 -0.243569 1.0263e-17)
(3.47399 -1.3089 0)
(6.595 -2.18122 0)
(4.55085 1.49718 -4.26903e-20)
(4.42836 1.12172 -8.68804e-19)
(3.85023 0.314721 -8.48879e-19)
(3.13488 -2.10145 0)
(3.22806 -1.22038 8.64432e-18)
(3.3241 -1.09774 1.69914e-17)
(3.08779 -1.16932 0)
(3.70897 -0.605646 0)
(3.97515 -0.453136 3.91068e-17)
(3.80359 -0.410618 -4.77528e-18)
(3.94323 -0.607188 -2.81316e-17)
(3.16418 -1.48198 1.70878e-17)
(3.34627 -1.38146 0)
(3.2443 -1.32231 -1.78909e-17)
(3.2986 -1.4999 0)
(7.59826 -0.277214 1.12983e-17)
(3.78937 -1.48688 0)
(3.57725 -1.34135 0)
(3.76704 -1.28999 0)
(3.57828 -1.49729 1.41142e-17)
(4.08764 -0.946296 0)
(4.37135 -0.915336 -6.80564e-18)
(3.16543 -1.71099 -4.231e-19)
(3.29916 -1.69156 0)
(3.3149 -1.72144 3.81313e-19)
(3.14765 -1.68435 0)
(6.98547 0.0436641 2.87973e-19)
(6.95498 -0.0183673 0)
(6.59362 0.228842 2.88928e-17)
(4.96693 -1.8031 -7.19849e-20)
(4.63323 -1.65945 3.94466e-18)
(4.94335 -1.71506 2.90391e-18)
(4.63107 -1.768 3.92761e-18)
(6.81843 1.95872 0)
(7.19463 0.377912 -1.90333e-17)
(4.66608 -1.66046 1.63544e-17)
(4.78046 -1.37341 -3.02536e-17)
(7.07186 -0.25791 4.03418e-18)
(7.17431 -0.212283 -4.1441e-19)
(7.10394 -0.252176 -2.63251e-18)
(6.81949 1.20454 3.92023e-18)
(3.96439 -0.090198 -4.71783e-17)
(2.05174 -0.187465 0)
(6.3031 -0.528822 -1.76714e-17)
(6.412 -0.497942 3.9555e-18)
(5.77805 2.92944 -7.29133e-19)
(4.15828 -2.14511 0)
(4.12615 -2.05738 -1.1101e-19)
(4.30924 -2.08778 2.89225e-18)
(4.01061 -2.10003 2.85632e-18)
(4.43976 -1.34461 0)
(4.68674 -1.04109 -5.2899e-18)
(4.47867 -1.08539 0)
(4.68219 -1.28007 3.33216e-17)
(6.91565 0.0906869 0)
(6.92117 0.0586305 1.28825e-17)
(6.9119 0.075185 0)
(7.00299 0.0578534 4.07876e-19)
(7.0003 0.0728939 -1.70718e-17)
(7.62465 -0.139694 0)
(7.28514 -0.161891 -1.5602e-19)
(7.4285 -0.172474 1.65626e-18)
(7.45536 -0.129384 0)
(6.71283 0.11948 0)
(6.82101 0.0470294 -5.77748e-17)
(6.7855 0.110804 4.21891e-18)
(6.73352 0.0789069 3.57731e-17)
(3.78395 -2.27021 -5.98079e-18)
(3.62469 -2.16397 0)
(3.63428 -2.30047 0)
(3.77059 -2.16848 0)
(6.01021 2.45145 2.12757e-18)
(6.02321 2.53301 -1.16655e-18)
(6.066 2.40215 1.64406e-18)
(2.90912 -1.05337 0)
(2.80909 -1.15346 6.72088e-18)
(2.81983 -1.07055 -7.09988e-18)
(2.9117 -1.15444 -5.44422e-18)
(6.59769 0.138007 -7.75215e-18)
(6.49337 0.151143 2.96657e-18)
(6.55684 0.107968 7.78787e-17)
(2.8773 -0.398791 -1.46034e-17)
(2.01775 -0.0169768 2.36874e-17)
(6.95102 0.117526 0)
(2.17606 -0.198993 -9.70619e-19)
(5.57732 -0.0477909 -1.0527e-16)
(6.99511 0.0162926 5.05373e-17)
(7.01806 0.0601886 2.19928e-17)
(2.27697 -1.15726 -6.03335e-18)
(2.55186 -1.26613 1.0408e-17)
(7.01009 0.0931601 6.20595e-17)
(7.00949 0.0669861 6.68288e-17)
(7.00811 0.0724947 -2.2035e-17)
(6.96544 0.16286 8.14096e-17)
(5.27458 -0.925877 9.46065e-18)
(7.00082 0.197237 0)
(5.81555 -0.07093 1.38774e-17)
(1.9508 -0.326272 -3.78414e-20)
(2.6539 -0.403223 0)
(6.81004 0.181206 -5.18201e-17)
(2.88643 -1.72049 0)
(7.35574 0.00878543 -2.24461e-17)
(6.9999 0.114838 4.52564e-17)
(6.78776 -0.00102589 0)
(7.7744 -0.284223 0)
(7.28578 0.287642 0)
(7.26261 0.351044 2.18387e-17)
(2.26309 0.672356 1.23766e-17)
(7.69224 -0.204518 6.34655e-17)
(7.62902 -0.245672 0)
(7.11457 0.142614 1.07571e-18)
(6.87404 0.220485 0)
(4.66205 -0.946404 6.13778e-18)
(5.90062 -0.0576684 1.40057e-17)
(7.16447 -0.0980789 -5.00948e-18)
(7.09354 -0.125189 -4.20821e-18)
(7.15475 -0.116769 -3.43463e-19)
(7.59189 -0.176497 0)
(6.81267 -0.404906 -3.45212e-18)
(6.80828 -0.506201 4.73622e-18)
(8.06167 -0.170901 3.05861e-17)
(8.11994 -0.0997785 -3.10503e-17)
(8.03526 -0.101479 6.79723e-17)
(6.78092 -0.0291105 7.11884e-18)
(6.64702 -0.00644258 4.17145e-18)
(6.97995 0.144599 2.43691e-17)
(6.97598 0.123696 2.40077e-17)
(7.00085 0.0199365 2.69938e-17)
(7.00356 0.0305656 5.70277e-17)
(6.59655 -0.383047 0)
(4.27301 0.638401 0)
(6.93112 -0.381595 0)
(6.92474 -0.48373 0)
(7.06693 -0.0733896 -3.04319e-18)
(6.98487 0.207246 -2.54479e-17)
(5.90794 -0.0360538 -9.07768e-18)
(7.00261 0.137623 -4.65576e-17)
(6.99317 0.170236 0)
(6.99327 0.154966 9.74033e-19)
(1.94616 0.292955 0)
(6.94464 0.0907347 -1.26265e-17)
(6.95286 0.0818004 1.24721e-17)
(5.53341 -1.39976 5.14515e-18)
(5.69342 -1.24043 0)
(5.54962 -1.16824 1.87102e-18)
(7.50031 -0.264079 -5.8861e-17)
(7.09445 -0.0439282 0)
(8.18741 -0.0102236 0)
(6.38754 -0.0284485 -2.97362e-18)
(6.34093 -0.0241558 -2.13702e-17)
(6.63738 -0.0248349 2.99755e-17)
(4.84113 -0.41893 5.74429e-17)
(5.05209 -0.415431 0)
(7.53903 -0.273787 -6.47914e-17)
(7.49621 -0.260601 5.36277e-17)
(8.02142 0.0164944 -2.46749e-17)
(8.15306 -0.0859922 0)
(6.19829 -0.248298 0)
(7.02124 0.00919639 0)
(7.13403 0.328257 5.47829e-18)
(7.11756 0.284086 0)
(8.00348 -0.107678 0)
(8.20047 -0.0732052 -1.74169e-17)
(1.44108 0.4569 0)
(7.1168 -0.148768 -1.84698e-18)
(7.21837 0.0235457 0)
(4.80822 -0.878269 -2.68741e-17)
(7.20806 0.098788 -1.35308e-18)
(7.22112 0.0617868 1.91055e-17)
(0.846102 -0.070346 -9.1277e-17)
(3.90864 0.273026 1.41004e-17)
(3.75712 0.454606 -8.82176e-18)
(6.82632 0.163918 4.57917e-17)
(6.99864 0.0418611 -2.46645e-17)
(6.99497 0.0568093 -2.56677e-17)
(5.2717 -0.599558 -1.80073e-17)
(6.41403 1.89875 -2.7775e-18)
(6.30124 -0.0772625 -2.85615e-17)
(6.1927 -0.14369 0)
(2.7634 -1.2157 1.18499e-17)
(2.78639 -1.31707 -1.19983e-17)
(6.7502 0.0304159 -3.52613e-19)
(6.66377 -0.0469566 5.87024e-17)
(6.74742 -0.0263919 0)
(7.00054 0.0741426 5.28251e-17)
(7.00276 0.100324 1.55189e-18)
(3.32392 0.874937 0)
(6.9703 0.199731 -5.17654e-17)
(6.67174 0.171849 -4.68173e-17)
(6.63979 0.230009 -2.8544e-17)
(6.8855 0.183674 9.20261e-17)
(6.91854 0.186346 -6.61253e-17)
(6.93299 0.157161 -2.71489e-17)
(7.28095 0.0496065 -5.98383e-17)
(6.41253 -0.0919759 1.95303e-17)
(6.51151 -0.0238323 -4.70576e-17)
(6.3401 -0.250076 -1.06062e-17)
(6.4358 -0.160435 -6.51797e-17)
(7.54475 -0.0128998 0)
(7.69231 0.0595067 -4.47101e-18)
(7.13899 -0.150004 -1.34297e-17)
(7.83755 -0.0245785 2.74299e-17)
(6.51648 1.9858 1.88045e-18)
(6.96853 0.112714 5.21483e-18)
(7.10956 -0.233352 0)
(7.15509 -0.199221 7.21114e-19)
(4.73705 -0.362005 0)
(4.88027 -0.417413 3.85089e-17)
(7.43088 0.149435 -3.73078e-17)
(7.79482 0.131263 -3.6339e-18)
(7.49701 0.0894113 -1.99785e-18)
(7.40626 0.10679 3.23131e-18)
(5.85043 -0.24884 0)
(5.66077 -0.293253 0)
(3.52933 -1.58518 -1.96023e-17)
(3.31425 -1.58394 0)
(3.22509 -1.75557 -1.67683e-17)
(2.85089 -1.70363 -1.47589e-17)
(7.01565 0.042405 -8.14735e-18)
(6.78573 0.146902 0)
(6.8581 0.142141 0)
(7.61787 0.0282157 0)
(7.94591 0.0319225 -3.60843e-17)
(4.24775 0.0583927 -2.6206e-17)
(4.44468 0.00872127 2.21011e-17)
(8.25666 0.0714657 -1.72712e-17)
(8.12235 0.129769 -1.48662e-16)
(7.99077 0.0270957 -5.26169e-17)
(7.15821 0.0586592 0)
(7.72262 0.219581 0)
(7.10144 0.0447105 0)
(7.48319 -0.078091 0)
(7.10388 0.179382 -4.21356e-16)
(4.96674 0.0264207 4.73948e-16)
(7.53208 0.157669 6.9689e-17)
(6.07293 -1.85179 0)
(6.08195 -1.73428 0)
(6.99079 0.0163305 -2.40568e-17)
(6.95621 0.0348614 -5.69056e-17)
(7.02306 0.0334845 1.89491e-17)
(6.94162 0.0458895 8.28263e-17)
(7.88081 -0.196519 5.23796e-17)
(5.20467 -0.198881 -3.93856e-17)
(5.36915 -0.253361 -4.99542e-17)
(5.53054 -0.164348 7.8387e-17)
(6.90749 0.0973138 0)
(6.89831 0.118312 0)
(6.87459 0.142809 0)
(6.89213 0.137372 -2.69606e-17)
(6.85602 0.167418 0)
(7.00158 0.0493737 3.95481e-17)
(7.4046 -0.0753158 3.85976e-17)
(7.13052 -0.128904 -3.27691e-17)
(7.56365 -0.253858 8.77548e-17)
(7.64141 -0.211744 -5.76756e-17)
(7.62862 -0.201133 -5.45242e-17)
(7.63282 -0.199497 0)
(7.48225 -0.204491 2.1219e-17)
(7.54063 -0.219093 -2.1157e-17)
(4.77981 -0.0771709 -9.21116e-20)
(6.91163 -0.0256601 -1.31015e-17)
(7.81878 -0.206631 1.50566e-17)
(5.19949 -0.554524 0)
(5.36631 -0.497244 -2.19399e-17)
(5.57227 -0.495893 -3.66795e-17)
(4.23216 0.582414 5.40291e-18)
(4.26916 0.660126 4.69144e-18)
(6.50898 0.0271873 2.37266e-17)
(6.41828 0.0453917 0)
(3.58195 -0.950291 -2.93927e-18)
(3.47935 -1.10373 0)
(7.68054 -0.112872 -3.8964e-18)
(7.82934 0.0154285 0)
(7.75456 0.0908847 8.19265e-19)
(3.77636 0.406683 2.08293e-18)
(3.79263 0.455581 -2.72859e-20)
(5.32228 -3.10426 3.07622e-19)
(5.32713 -3.16584 -2.82237e-19)
(2.68222 -0.90127 0)
(4.85672 1.85214 -4.38124e-19)
(7.16509 -0.533228 -1.97589e-20)
(5.82847 -0.103215 0)
(6.20967 -0.131706 7.10179e-20)
(6.03537 -0.256097 -1.6752e-19)
(2.6092 0.401633 0)
(6.08317 -2.54252 -2.06443e-19)
(7.93778 0.860825 -5.87454e-19)
(7.13013 -0.310133 7.67329e-20)
(7.79313 -0.595046 1.06589e-18)
(5.78948 3.15741 3.19403e-19)
(2.73591 0.408988 3.99389e-18)
(3.51179 -3.66111 1.01651e-18)
(6.62825 -2.75566 0)
(2.62601 -1.50091 0)
(7.79877 0.83445 0)
(3.32174 -3.29701 0)
(3.38944 -3.37216 0)
(5.92353 3.22436 4.5077e-20)
(5.9311 3.24302 0)
(6.22708 -0.459389 1.24143e-19)
(6.55244 -0.148114 -3.02199e-20)
(6.53937 -0.107323 3.42813e-20)
(5.85853 -0.191137 9.91689e-20)
(7.03128 -1.65941 6.83099e-20)
(7.05812 -1.72082 3.23078e-20)
(4.34425 -3.52415 9.07535e-19)
(6.06278 -0.265469 -9.7563e-21)
(6.1053 -0.293222 0)
(6.69551 0.174909 -7.77086e-22)
(6.75178 -0.150478 -6.87894e-21)
(6.74172 -0.109355 8.01533e-21)
(6.56852 -0.091554 0)
(6.50656 -2.4697 0)
(6.5048 -2.42524 -3.7998e-21)
(3.09774 -1.98998 1.08298e-18)
(6.11412 -0.0304313 8.465e-20)
(6.11722 -0.0737343 -2.33897e-20)
(3.07241 -2.20196 0)
(1.57867 -2.06526 3.06259e-17)
(4.69258 1.69627 3.56148e-19)
(4.71864 1.68618 -1.92163e-20)
(2.61904 0.00956883 4.29017e-18)
(6.83659 -1.20313 -1.12846e-17)
(5.70387 2.45923 8.15947e-19)
(7.17994 0.343656 1.21309e-19)
(5.5791 -2.97766 -1.63764e-19)
(2.42074 -0.946579 -1.53187e-18)
(5.85849 3.0733 0)
(5.87283 2.99276 1.6121e-19)
(6.18984 -2.67256 8.99084e-20)
(4.63598 1.83092 -2.30461e-20)
(6.39939 -2.67381 -1.8862e-19)
(6.41091 -2.65214 5.43849e-19)
(6.18048 -2.03546 0)
(6.93909 -1.87773 0)
(6.82457 -2.10124 -7.73671e-20)
(5.96236 3.02175 2.35926e-19)
(6.6845 -0.335655 3.87226e-20)
(6.99973 -1.96705 4.63872e-21)
(5.9826 3.07446 0)
(4.91604 -0.366329 0)
(7.36997 -0.317698 0)
(6.10577 -2.63565 -5.97888e-20)
(2.44642 -2.56779 -1.37698e-20)
(2.56765 -2.43961 8.80894e-19)
(6.97657 -0.663482 0)
(6.99744 -0.740933 1.3113e-19)
(4.9047 -3.11091 -8.31551e-19)
(5.92278 2.98561 2.02839e-19)
(2.47439 -1.74791 6.00297e-19)
(6.96736 -0.069844 -9.39892e-20)
(4.44204 -3.70768 0)
(5.75603 3.17598 0)
(5.72423 3.14063 -9.92816e-19)
(5.7095 2.5355 0)
(5.28126 -3.43435 -4.5703e-18)
(5.7911 3.42544 0)
(5.89704 2.98114 -1.75385e-19)
(6.25864 -0.036104 0)
(3.99757 0.069251 2.99321e-19)
(3.93781 0.0514773 1.49506e-19)
(6.01952 -0.473768 3.06524e-19)
(6.91417 -0.0640272 0)
(6.89669 -0.0279024 0)
(6.94522 -0.03351 8.58892e-20)
(5.79284 -2.83076 8.8052e-18)
(6.3874 0.13742 1.35369e-20)
(7.45956 -1.01492 0)
(7.42947 -0.955206 -3.86968e-20)
(2.32781 -2.05327 4.87624e-18)
(6.40882 -0.181747 -3.05852e-20)
(6.41347 -0.146596 0)
(2.78302 -0.158541 6.23309e-18)
(2.86022 -0.00619815 0)
(7.52604 -0.715835 -3.07345e-19)
(7.50823 -0.676711 -1.91917e-19)
(5.60843 3.12864 -1.10327e-19)
(6.64066 -2.63791 2.30698e-18)
(2.93171 -1.59873 8.79585e-19)
(5.84289 3.03523 -9.91135e-20)
(5.8997 2.96613 6.73383e-19)
(6.16594 2.72731 2.34019e-18)
(7.24696 -1.3009 -3.76323e-21)
(2.60804 -4.40718 5.70135e-18)
(6.4968 -0.112953 6.85664e-20)
(6.50448 -0.152394 -3.55421e-20)
(6.33226 2.96066 6.03357e-20)
(6.95683 -1.99363 0)
(6.85915 -2.06025 4.46753e-20)
(4.19811 -4.04641 1.34286e-18)
(1.56617 -1.31008 -6.73484e-18)
(4.50762 0.828384 8.93562e-19)
(7.54849 -1.25481 3.927e-19)
(5.77118 -2.81743 -1.49491e-19)
(5.77465 -2.87035 3.67133e-19)
(4.56227 1.23068 -3.80714e-19)
(4.65455 1.54149 -4.89352e-19)
(7.01129 -1.90849 -4.01965e-21)
(6.99355 -1.87317 3.01368e-20)
(7.04663 -4.15398 0)
(7.58851 -4.94099 0)
(7.16198 -1.26629 9.59543e-20)
(7.39253 -0.964509 3.09877e-19)
(6.97498 0.263017 0)
(3.91137 0.629762 -1.97313e-18)
(6.65099 0.065518 0)
(7.37602 -3.28558 5.92513e-19)
(1.71386 -1.60037 2.11535e-17)
(7.33179 -4.33424 0)
(5.91461 3.07539 -1.39138e-19)
(3.39906 -3.59726 -4.05338e-19)
(3.44524 -3.68504 1.73073e-18)
(6.04182 3.09943 0)
(6.02848 3.07377 -4.74915e-19)
(6.7338 2.18563 0)
(4.27523 -1.1088 0)
(6.19853 -0.518324 -7.184e-20)
(8.35441 -2.6353 1.05139e-18)
(6.67342 -1.24823 0)
(6.47797 -1.33395 0)
(6.26882 -0.265912 -8.26145e-20)
(6.05675 -2.24258 2.62046e-19)
(3.93611 -0.308568 2.46591e-17)
(6.69933 -1.73308 7.12742e-21)
(7.42006 -2.64063 -1.15497e-18)
(7.43567 -2.56294 0)
(5.86753 0.310464 0)
(2.11302 -4.02925 8.87659e-18)
(4.05919 0.635117 -1.01229e-18)
(5.89222 3.25708 -1.9196e-19)
(6.32096 -2.42017 5.93242e-20)
(5.5547 2.97968 0)
(4.31808 0.598831 3.49383e-19)
(4.3177 0.392546 7.2011e-19)
(6.8653 -1.34595 -1.04049e-19)
(5.78292 -0.0939638 1.74891e-19)
(6.77065 -1.93047 -5.01047e-21)
(6.77846 -1.98758 7.34454e-20)
(6.74371 0.282542 -1.62956e-20)
(6.25544 -0.483514 -1.33227e-19)
(6.43633 -0.245802 0)
(6.48443 -0.233255 4.32791e-20)
(5.24186 -3.16855 0)
(5.07478 -3.16659 0)
(3.02137 -1.51598 0)
(2.80128 0.509839 -3.28739e-18)
(2.75576 0.480955 0)
(2.77821 0.618299 0)
(6.9149 -0.950525 2.0865e-20)
(5.91352 2.98351 -8.94792e-20)
(6.35236 2.98906 3.88459e-20)
(3.7547 -1.85155 0)
(3.63849 -1.84116 3.83278e-19)
(4.95608 -0.402192 0)
(5.87151 3.05501 -7.0501e-22)
(4.71402 1.25098 0)
(2.6068 -0.896314 4.33681e-18)
(4.72039 -1.13111 1.20335e-18)
(4.81884 -1.1419 -5.15612e-20)
(7.01219 -0.189932 -9.86653e-20)
(6.8168 0.530876 8.11131e-18)
(6.74439 2.83076 2.43979e-19)
(4.25555 -1.00052 0)
(4.31771 -1.05549 0)
(6.448 0.840352 4.82335e-21)
(5.88737 3.05196 0)
(5.84157 -2.88471 0)
(6.27648 -1.30059 -7.52803e-21)
(6.32455 -2.84967 -6.968e-19)
(6.0598 -0.145219 -8.28664e-20)
(6.06055 -0.190957 1.24116e-19)
(2.61295 -1.44354 -5.51601e-19)
(6.52035 -2.0198 1.951e-20)
(6.58997 -4.95521 -3.02303e-19)
(5.85376 3.08996 1.03866e-19)
(5.88324 -2.71978 4.24777e-19)
(6.62091 -0.533129 1.35302e-20)
(6.58351 -0.538553 -7.39946e-20)
(4.67729 1.32848 -6.69047e-19)
(4.33264 -0.346836 0)
(4.33987 -0.272886 -1.15583e-20)
(4.94108 -4.06228 5.96188e-19)
(6.55806 0.28802 0)
(5.88309 3.14267 3.19523e-19)
(4.44886 -3.49843 0)
(4.49487 -3.58678 9.15965e-19)
(3.98657 -0.481123 -1.38372e-19)
(6.33424 -0.170896 0)
(6.36931 -0.142646 0)
(5.8553 3.10402 4.81714e-20)
(5.84038 3.06502 9.29087e-20)
(5.83427 3.05197 1.3561e-19)
(4.80307 -4.42685 -4.06697e-19)
(7.13658 -0.196571 -9.26111e-20)
(7.16678 -0.16042 0)
(8.31386 -2.69042 2.04054e-18)
(6.92039 -1.97495 -5.23945e-20)
(6.9146 -1.91833 -2.30012e-20)
(6.86384 -2.01319 1.20335e-19)
(5.86678 -0.660505 4.79687e-20)
(5.86111 -0.617424 0)
(6.07549 -0.722848 0)
(6.06826 -0.757895 0)
(6.99066 -1.30081 0)
(7.0073 -1.2686 0)
(7.03654 0.482173 1.56256e-19)
(5.25756 3.05149 3.3164e-19)
(5.92576 3.02537 -4.01916e-19)
(5.93959 3.01968 0)
(6.61614 -2.19263 3.35388e-18)
(6.04053 -1.21 0)
(7.35525 -4.88608 0)
(4.29515 -0.686886 4.46361e-19)
(5.78323 -2.81484 -5.06372e-19)
(5.58853 -2.87734 1.05217e-18)
(7.30868 -4.66478 2.44902e-19)
(6.17789 -2.15976 2.14827e-19)
(7.04371 -2.91632 0)
(5.86704 3.11263 9.61417e-20)
(5.87088 3.12826 0)
(7.59638 -2.05021 -2.80499e-19)
(7.49287 -1.51819 -4.10839e-19)
(6.42544 -0.0627884 2.24328e-20)
(4.1017 -1.18598 0)
(6.83893 -4.88242 5.06577e-19)
(5.5177 2.55551 0)
(5.48101 2.51097 3.55217e-18)
(5.88771 -2.9474 -1.14765e-19)
(4.57786 -0.915135 8.36778e-19)
(6.94384 0.358376 0)
(1.76167 -1.74992 0)
(6.46963 1.49439 0)
(6.38306 1.59521 0)
(6.24138 -2.15996 3.15773e-19)
(6.2444 0.0298305 2.93524e-20)
(6.21039 0.00687723 -8.48588e-21)
(5.89467 2.91849 6.32357e-19)
(5.89274 2.89762 -8.11748e-20)
(6.40852 -0.45427 0)
(5.93641 2.38102 -4.08785e-18)
(7.36768 0.227448 0)
(7.33023 0.151192 5.55896e-19)
(5.98836 -0.218725 0)
(5.65606 2.82154 0)
(5.63684 2.9394 1.08834e-19)
(6.68239 -1.61675 1.86642e-20)
(5.86041 3.05278 1.8869e-19)
(5.84184 3.11486 0)
(6.47491 -1.90403 -1.33407e-19)
(7.32549 -1.37782 9.90903e-20)
(7.39458 -1.27484 2.59433e-19)
(5.94497 3.27436 -1.55117e-19)
(5.93765 3.25555 0)
(6.79255 -0.132181 -1.10425e-22)
(7.12707 0.251022 -9.8168e-21)
(7.09861 0.319327 9.00095e-21)
(6.39029 -2.10135 -1.88532e-19)
(6.33431 -2.17828 0)
(2.1837 -1.11806 0)
(3.7573 -3.46299 -1.24371e-18)
(3.63413 -3.69964 1.44354e-18)
(6.74661 -2.17893 -2.2419e-20)
(3.02903 0.430561 0)
(5.92819 2.99102 -5.17285e-21)
(5.92317 2.99253 -1.9514e-19)
(3.46984 -3.99247 0)
(3.36804 -4.12365 -3.36429e-18)
(6.46483 -2.08663 -1.41085e-20)
(6.4823 -2.02836 5.62882e-20)
(6.4111 -2.07646 1.66948e-19)
(3.66791 -0.439074 1.376e-18)
(3.64486 -0.258437 7.86953e-19)
(5.91684 -2.66637 1.47446e-18)
(6.92055 -0.392698 4.0653e-20)
(6.43851 -0.512636 -5.93615e-21)
(5.61021 -2.82914 0)
(5.5341 -2.813 0)
(5.70929 -2.79594 0)
(2.56898 -2.3092 7.45464e-19)
(2.65886 -2.36716 2.09792e-18)
(5.99016 -0.722475 0)
(6.44109 -1.75546 -5.28133e-20)
(7.67973 -0.347344 -1.12434e-19)
(7.70446 -0.364594 0)
(6.11765 -1.68705 -2.44151e-19)
(6.12909 -1.73191 1.5592e-19)
(6.61232 -2.67039 -1.48416e-18)
(6.53354 -2.66135 1.23429e-18)
(6.71555 -2.70104 0)
(4.22673 0.00744755 4.69648e-19)
(4.29348 0.168516 3.49516e-19)
(3.21343 -4.44484 0)
(6.16476 -2.79772 -9.14673e-19)
(5.94645 3.0961 4.23531e-20)
(5.81365 2.13643 5.31781e-18)
(4.09003 -3.75632 1.02734e-18)
(4.15181 -3.84275 0)
(2.62816 -3.33271 -7.23144e-18)
(7.53136 -1.07453 3.86663e-19)
(7.1979 -0.513353 1.83397e-19)
(7.26803 -0.502105 6.30749e-20)
(6.10335 -0.218387 -1.96255e-19)
(2.65649 -0.123545 -6.20507e-18)
(6.60538 3.36878 0)
(6.67075 3.31709 0)
(6.86249 -0.622389 -5.266e-18)
(6.918 -0.693813 0)
(7.2284 -1.79918 0)